         Total DFT energy =     -327.637746431101
@ Step       Energy      Delta E   Gmax     Grms     Xrms     Xmax   Walltime
@ ---- ---------------- -------- -------- -------- -------- -------- --------
@    0    -327.63774643  0.0D+00  0.02107  0.00471  0.00000  0.00000      7.3
         Total DFT energy =     -327.640708235167
         Total DFT energy =     -327.642479571575
@    1    -327.64247957 -4.7D-03  0.00483  0.00132  0.05444  0.20155     16.5
         Total DFT energy =     -327.643280795189
         Total DFT energy =     -327.643306006616
@    2    -327.64330601 -8.3D-04  0.00179  0.00052  0.02195  0.05565     24.8
         Total DFT energy =     -327.643440283349
         Total DFT energy =     -327.643494745766
@    3    -327.64349475 -1.9D-04  0.00142  0.00028  0.01307  0.04224     33.1
         Total DFT energy =     -327.643550144475
         Total DFT energy =     -327.643566057607
@    4    -327.64356606 -7.1D-05  0.00103  0.00024  0.00955  0.02774     40.7
         Total DFT energy =     -327.643607328087
         Total DFT energy =     -327.643642013999
@    5    -327.64364201 -7.6D-05  0.00234  0.00034  0.01270  0.04448     49.0
         Total DFT energy =     -327.643684336569
         Total DFT energy =     -327.643705616953
@    6    -327.64370562 -6.4D-05  0.00168  0.00022  0.01562  0.05757     57.3
         Total DFT energy =     -327.643734088568
         Total DFT energy =     -327.643746336953
@    7    -327.64374634 -4.1D-05  0.00064  0.00014  0.01364  0.04350     64.6
         Total DFT energy =     -327.643757626882
         Total DFT energy =     -327.643759908034
@    8    -327.64375991 -1.4D-05  0.00061  0.00011  0.00526  0.01971     71.7
         Total DFT energy =     -327.643764540514
         Total DFT energy =   -327.643764540514
@    9    -327.64376454 -4.6D-06  0.00027  0.00006  0.00126  0.00318     76.4
         Total DFT energy =     -327.643769453230
         Total DFT energy =   -327.643769453230
@   10    -327.64376945 -4.9D-06  0.00013  0.00003  0.00318  0.00965     81.8
         Total DFT energy =     -327.643770415207
         Total DFT energy =   -327.643770415207
@   11    -327.64377042 -9.6D-07  0.00013  0.00003  0.00181  0.00549     86.5
         Total DFT energy =     -327.643771197464
         Total DFT energy =   -327.643771197464
@   12    -327.64377120 -7.8D-07  0.00006  0.00001  0.00153  0.00457     91.2
         Total DFT energy =     -327.643771404417
         Total DFT energy =   -327.643771404417
@   13    -327.64377140 -2.1D-07  0.00005  0.00001  0.00072  0.00214     95.6
         Total DFT energy =     -327.643771288163
         Total DFT energy =   -327.643771288163
@   14    -327.64377129  1.2D-07  0.00010  0.00002  0.00099  0.00316    100.3
         Total DFT energy =     -327.643771639864
         Total DFT energy =   -327.643771639864
@   15    -327.64377164 -3.5D-07  0.00008  0.00001  0.00085  0.00286    104.6
         Total DFT energy =     -327.643771551591
         Total DFT energy =   -327.643771551591
@   16    -327.64377155  8.8D-08  0.00003  0.00001  0.00170  0.00551    109.3
         Total DFT energy =     -327.643771590703
         Total DFT energy =   -327.643771590703
@   17    -327.64377159 -3.9D-08  0.00005  0.00001  0.00098  0.00326    114.1
         Total DFT energy =     -327.643771369390
         Total DFT energy =   -327.643771369390
@   18    -327.64377137  2.2D-07  0.00003  0.00001  0.00105  0.00338    118.8
         Total DFT energy =     -327.643771513565
         Total DFT energy =   -327.643771513565
@   19    -327.64377151 -1.4D-07  0.00002  0.00001  0.00038  0.00081    123.2
@   19    -327.64377151 -1.4D-07  0.00002  0.00001  0.00038  0.00081    123.2

 Output coordinates in angstroms (scale by  1.889725989 to convert to a.u.)

  No.       Tag          Charge          X              Y              Z
 ---- ---------------- ---------- -------------- -------------- --------------
    1 C                    6.0000     0.42055190     2.61635770     0.21941452
    2 N                    7.0000     0.63771002     1.26945619    -0.28358529
    3 C                    6.0000    -0.27448647     0.25848760     0.20265876
    4 O                    8.0000    -1.63919869     0.46712631    -0.19958258
    5 C                    6.0000     0.12521887    -1.14059294    -0.30637656
    6 C                    6.0000     1.57226451    -1.48761255     0.06413588
    7 C                    6.0000    -0.85571599    -2.21494769     0.17928534
    8 H                    1.0000     0.54113083     2.62543719     1.32297667
    9 H                    1.0000    -0.58323476     3.05529425    -0.01524606
   10 H                    1.0000     1.18452752     3.30260641    -0.19657206
   11 H                    1.0000     0.61808409     1.26358084    -1.31418903
   12 H                    1.0000    -0.20423590     0.26797421     1.31762684
   13 H                    1.0000    -2.00049171     1.22074552     0.31825704
   14 H                    1.0000     0.04975665    -1.09126475    -1.41533770
   15 H                    1.0000     1.69011781    -1.54524296     1.16654584
   16 H                    1.0000     1.85390724    -2.47381348    -0.35526170
   17 H                    1.0000     2.28037300    -0.72597677    -0.30958118
   18 H                    1.0000    -1.88928490    -1.97570795    -0.12859245
   19 H                    1.0000    -0.58197238    -3.20626309    -0.23310761
   20 H                    1.0000    -0.83468730    -2.29266968     1.28674550

         Total DFT energy =     -327.648973361774
 Zero-Point correction to Energy  =  110.865 kcal/mol  (  0.176675 au)
 Thermal correction to Energy     =  116.934 kcal/mol  (  0.186346 au)
 Thermal correction to Enthalpy   =  117.526 kcal/mol  (  0.187290 au)
 Total Entropy                    =   96.198 cal/mol-K
   - Translational                =   39.791 cal/mol-K (mol. weight = 103.0997)
   - Rotational                   =   27.935 cal/mol-K (symmetry #  =        1)
   - Vibrational                  =   28.472 cal/mol-K
   - Translational                  =    2.979 cal/mol-K
   - Rotational                     =    2.979 cal/mol-K
   - Vibrational                    =   28.262 cal/mol-K
 P.Frequency       -0.00       -0.00        0.00        0.00        0.00        0.00
 P.Frequency       17.96       83.06      155.60      165.79      180.47      222.56
 P.Frequency      281.08      336.55      370.56      404.53      440.12      486.38
 P.Frequency      558.74      747.06      840.11      906.63      911.93      937.52
 P.Frequency      994.19     1000.98     1064.06     1108.85     1118.71     1153.78
 P.Frequency     1164.26     1190.42     1224.10     1293.68     1299.16     1326.10
 P.Frequency     1342.90     1353.65     1379.31     1395.40     1418.62     1424.98
 P.Frequency     1426.88     1431.67     1447.60     1454.10     1484.68     2876.27
 P.Frequency     2923.50     2971.16     2980.70     2985.40     3011.08     3061.87
 P.Frequency     3066.39     3068.90     3101.98     3107.23     3365.57     3523.69

 Normal Eigenvalue ||           Projected Infra Red Intensities
  Mode   [cm**-1]  || [atomic units] [(debye/angs)**2] [(KM/mol)] [arbitrary]
 ------ ---------- || -------------- ----------------- ---------- -----------
    1       -0.000 ||    0.000145           0.003         0.142       0.078
    2       -0.000 ||    0.000054           0.001         0.052       0.029
    3        0.000 ||    0.000246           0.006         0.240       0.133
    4        0.000 ||    0.000012           0.000         0.012       0.007
    5        0.000 ||    0.000004           0.000         0.004       0.002
    6        0.000 ||    0.000162           0.004         0.158       0.087
    7       17.962 ||    0.000388           0.009         0.378       0.209
    8       83.061 ||    0.001026           0.024         1.001       0.553
    9      155.604 ||    0.000350           0.008         0.341       0.189
   10      165.790 ||    0.002644           0.061         2.577       1.424
   11      180.473 ||    0.000174           0.004         0.170       0.094
   12      222.557 ||    0.001023           0.024         0.997       0.551
   13      281.082 ||    0.008101           0.187         7.897       4.365
   14      336.553 ||    0.001443           0.033         1.407       0.778
   15      370.564 ||    0.061357           1.416        59.814      33.058
   16      404.528 ||    0.033380           0.770        32.541      17.985
   17      440.118 ||    0.013183           0.304        12.851       7.103
   18      486.378 ||    0.009861           0.228         9.613       5.313
   19      558.742 ||    0.029924           0.690        29.172      16.123
   20      747.058 ||    0.084891           1.959        82.756      45.738
   21      840.107 ||    0.001512           0.035         1.474       0.815
   22      906.626 ||    0.000068           0.002         0.066       0.037
   23      911.926 ||    0.005643           0.130         5.501       3.040
   24      937.524 ||    0.013123           0.303        12.793       7.070
   25      994.187 ||    0.049149           1.134        47.913      26.481
   26     1000.977 ||    0.122707           2.831       119.621      66.112
   27     1064.060 ||    0.012536           0.289        12.220       6.754
   28     1108.851 ||    0.003296           0.076         3.213       1.776
   29     1118.714 ||    0.003395           0.078         3.310       1.829
   30     1153.783 ||    0.040810           0.942        39.784      21.988
   31     1164.263 ||    0.014782           0.341        14.411       7.964
   32     1190.424 ||    0.049476           1.141        48.231      26.657
   33     1224.105 ||    0.024558           0.567        23.940      13.231
   34     1293.676 ||    0.014701           0.339        14.331       7.921
   35     1299.162 ||    0.000627           0.014         0.612       0.338
   36     1326.096 ||    0.002816           0.065         2.745       1.517
   37     1342.901 ||    0.004177           0.096         4.071       2.250
   38     1353.652 ||    0.005019           0.116         4.893       2.704
   39     1379.306 ||    0.007036           0.162         6.859       3.791
   40     1395.401 ||    0.003847           0.089         3.750       2.072
   41     1418.625 ||    0.002865           0.066         2.793       1.543
   42     1424.979 ||    0.009473           0.219         9.235       5.104
   43     1426.881 ||    0.010557           0.244        10.291       5.688
   44     1431.668 ||    0.008196           0.189         7.989       4.416
   45     1447.597 ||    0.002487           0.057         2.424       1.340
   46     1454.100 ||    0.016263           0.375        15.854       8.762
   47     1484.675 ||    0.036021           0.831        35.115      19.407
   48     2876.273 ||    0.125053           2.885       121.908      67.376
   49     2923.495 ||    0.037622           0.868        36.676      20.270
   50     2971.164 ||    0.022184           0.512        21.626      11.953
   51     2980.705 ||    0.016910           0.390        16.485       9.111
   52     2985.400 ||    0.050928           1.175        49.647      27.439
   53     3011.076 ||    0.032973           0.761        32.143      17.765
   54     3061.871 ||    0.000603           0.014         0.588       0.325
   55     3066.390 ||    0.057129           1.318        55.692      30.780
   56     3068.897 ||    0.020781           0.479        20.258      11.196
   57     3101.980 ||    0.014802           0.342        14.430       7.975
   58     3107.234 ||    0.010436           0.241        10.174       5.623
   59     3365.573 ||    0.000026           0.001         0.025       0.014
   60     3523.688 ||    0.010667           0.246        10.398       5.747
 ----------------------------------------------------------------------------

         Total DFT energy =     -327.658670180570

                       DFT Final Molecular Orbital Analysis
                       ------------------------------------

 Vector    1  Occ=2.000000D+00  E=-1.876648D+01

 Vector   52  Occ=0.000000D+00  E= 4.269874D-01

 Vector   53  Occ=0.000000D+00  E= 4.327298D-01

 Vector   54  Occ=0.000000D+00  E= 4.432677D-01

 Vector   55  Occ=0.000000D+00  E= 4.616204D-01

 Vector   56  Occ=0.000000D+00  E= 4.887808D-01

 Vector   57  Occ=0.000000D+00  E= 5.314838D-01

 Vector   58  Occ=0.000000D+00  E= 5.495650D-01

 Vector   59  Occ=0.000000D+00  E= 5.644984D-01

 Vector   60  Occ=0.000000D+00  E= 5.941125D-01

 Vector   61  Occ=0.000000D+00  E= 5.988262D-01

 Vector   62  Occ=0.000000D+00  E= 6.055944D-01

 Vector   63  Occ=0.000000D+00  E= 6.159687D-01

 Vector   64  Occ=0.000000D+00  E= 6.222549D-01

 Vector   65  Occ=0.000000D+00  E= 6.317710D-01

 Vector   66  Occ=0.000000D+00  E= 6.419530D-01

 Vector   67  Occ=0.000000D+00  E= 6.462934D-01

 Vector   68  Occ=0.000000D+00  E= 6.540629D-01

 Vector   69  Occ=0.000000D+00  E= 6.636757D-01

 Vector   70  Occ=0.000000D+00  E= 6.662449D-01

 Vector   71  Occ=0.000000D+00  E= 6.698795D-01

 Vector   72  Occ=0.000000D+00  E= 6.865400D-01

 Vector   73  Occ=0.000000D+00  E= 6.889851D-01

 Vector   74  Occ=0.000000D+00  E= 6.950946D-01

 Vector   75  Occ=0.000000D+00  E= 7.153237D-01

 Vector   76  Occ=0.000000D+00  E= 7.164295D-01

 Vector   77  Occ=0.000000D+00  E= 7.338341D-01

 Vector   78  Occ=0.000000D+00  E= 8.364280D-01

 Vector   79  Occ=0.000000D+00  E= 9.022345D-01

 Vector   80  Occ=0.000000D+00  E= 9.121240D-01

 Vector   81  Occ=0.000000D+00  E= 9.605577D-01

 Vector   82  Occ=0.000000D+00  E= 9.953289D-01

 Vector   83  Occ=0.000000D+00  E= 1.030102D+00

 Vector   84  Occ=0.000000D+00  E= 1.036699D+00

 Vector   85  Occ=0.000000D+00  E= 1.087991D+00

 Vector   86  Occ=0.000000D+00  E= 1.131464D+00

 Vector   87  Occ=0.000000D+00  E= 1.157883D+00

 Vector   88  Occ=0.000000D+00  E= 1.308404D+00

 Vector   89  Occ=0.000000D+00  E= 1.373526D+00

 Vector   90  Occ=0.000000D+00  E= 1.410897D+00

 Vector   91  Occ=0.000000D+00  E= 1.437936D+00

 Vector   92  Occ=0.000000D+00  E= 1.599801D+00

 Vector   93  Occ=0.000000D+00  E= 1.616892D+00

 Vector   94  Occ=0.000000D+00  E= 1.686883D+00

 Vector   95  Occ=0.000000D+00  E= 1.725195D+00

 Vector   96  Occ=0.000000D+00  E= 1.729944D+00

 Vector   97  Occ=0.000000D+00  E= 1.840976D+00

 Vector   98  Occ=0.000000D+00  E= 1.850851D+00

 Vector   99  Occ=0.000000D+00  E= 1.866815D+00

 Vector  100  Occ=0.000000D+00  E= 1.888219D+00

 Vector  101  Occ=0.000000D+00  E= 1.920417D+00

 Vector  102  Occ=0.000000D+00  E= 1.940181D+00

 Vector  103  Occ=0.000000D+00  E= 1.971492D+00

 Vector  104  Occ=0.000000D+00  E= 1.990130D+00

 Vector  105  Occ=0.000000D+00  E= 2.007778D+00

 Vector  106  Occ=0.000000D+00  E= 2.014509D+00

 Vector  107  Occ=0.000000D+00  E= 2.053151D+00

 Vector  108  Occ=0.000000D+00  E= 2.068277D+00

 Vector  109  Occ=0.000000D+00  E= 2.075894D+00

 Vector  110  Occ=0.000000D+00  E= 2.271602D+00

 Vector  111  Occ=0.000000D+00  E= 2.325723D+00

 Vector  112  Occ=0.000000D+00  E= 2.355907D+00

 Vector  113  Occ=0.000000D+00  E= 2.401358D+00

 Vector  114  Occ=0.000000D+00  E= 2.451827D+00

 Vector  115  Occ=0.000000D+00  E= 2.487005D+00

 Vector  116  Occ=0.000000D+00  E= 2.542980D+00

 Vector  117  Occ=0.000000D+00  E= 2.556797D+00

 Vector  118  Occ=0.000000D+00  E= 2.638738D+00

 Vector  119  Occ=0.000000D+00  E= 2.742182D+00

 Vector  120  Occ=0.000000D+00  E= 2.777608D+00

 Vector  121  Occ=0.000000D+00  E= 2.925240D+00

 Vector  122  Occ=0.000000D+00  E= 2.936148D+00

 Vector  123  Occ=0.000000D+00  E= 3.008625D+00

 Vector  124  Occ=0.000000D+00  E= 3.273983D+00

 Vector  125  Occ=0.000000D+00  E= 4.828886D+00

 Vector  126  Occ=0.000000D+00  E= 4.928406D+00

 Vector  127  Occ=0.000000D+00  E= 4.953471D+00

 Vector  128  Occ=0.000000D+00  E= 5.026468D+00

 Vector  129  Occ=0.000000D+00  E= 5.205496D+00

 Vector  130  Occ=0.000000D+00  E= 5.594335D+00

 Vector  131  Occ=0.000000D+00  E= 6.008986D+00

     Multipole analysis of the density
     ---------------------------------

     L   x y z        total         alpha         beta         nuclear
     -   - - -        -----         -----         ----         -------
     0   0 0 0     -0.000000    -29.000000    -29.000000     58.000000

     1   1 0 0     -0.079217      0.526017      0.526017     -1.131251
     1   0 1 0      0.691186      1.065525      1.065525     -1.439865
     1   0 0 1      0.234575      0.101023      0.101023      0.032530

     2   2 0 0    -36.399930   -139.148426   -139.148426    241.896921
     2   1 1 0     -2.075504     -5.749081     -5.749081      9.422658
     2   1 0 1     -2.209686     -0.463172     -0.463172     -1.283343
     2   0 2 0    -31.102975   -310.124472   -310.124472    589.145969
     2   0 1 1      0.459202     -0.466756     -0.466756      1.392714

 Total times  cpu:      562.1s     wall:      562.1s
