         Total DFT energy =     -326.486410772142
@ Step       Energy      Delta E   Gmax     Grms     Xrms     Xmax   Walltime
@ ---- ---------------- -------- -------- -------- -------- -------- --------
@    0    -326.48641077  0.0D+00  0.01574  0.00400  0.00000  0.00000      6.4
         Total DFT energy =     -326.488825354257
         Total DFT energy =   -326.488825354257
@    1    -326.48882535 -2.4D-03  0.00375  0.00060  0.03266  0.10248     11.5
         Total DFT energy =     -326.488996872888
         Total DFT energy =     -326.489024579955
@    2    -326.48902458 -2.0D-04  0.00494  0.00069  0.01955  0.05684     19.0
         Total DFT energy =     -326.489106823818
         Total DFT energy =     -326.489115100402
@    3    -326.48911510 -9.1D-05  0.00245  0.00035  0.01502  0.03642     25.6
         Total DFT energy =     -326.489144850050
         Total DFT energy =     -326.489145553750
@    4    -326.48914555 -3.0D-05  0.00069  0.00015  0.00812  0.02174     32.0
         Total DFT energy =     -326.489155089377
         Total DFT energy =     -326.489158023035
@    5    -326.48915802 -1.2D-05  0.00169  0.00028  0.00829  0.03068     39.0
         Total DFT energy =     -326.489172285808
         Total DFT energy =     -326.489179198717
@    6    -326.48917920 -2.1D-05  0.00143  0.00020  0.00711  0.02715     45.9
         Total DFT energy =     -326.489197938940
         Total DFT energy =     -326.489227862601
@    7    -326.48922786 -4.9D-05  0.00098  0.00014  0.02449  0.08383     53.1
         Total DFT energy =     -326.489236951646
         Total DFT energy =     -326.489237863405
@    8    -326.48923786 -1.0D-05  0.00060  0.00009  0.01067  0.03227     59.8
         Total DFT energy =     -326.489241016937
         Total DFT energy =   -326.489241016937
@    9    -326.48924102 -3.2D-06  0.00016  0.00004  0.00293  0.01088     63.7
         Total DFT energy =     -326.489244207974
         Total DFT energy =   -326.489244207974
@   10    -326.48924421 -3.2D-06  0.00013  0.00003  0.00242  0.00689     67.9
         Total DFT energy =     -326.489246201730
         Total DFT energy =   -326.489246201730
@   11    -326.48924620 -2.0D-06  0.00023  0.00004  0.00231  0.00767     71.9
         Total DFT energy =     -326.489248390350
         Total DFT energy =   -326.489248390350
@   12    -326.48924839 -2.2D-06  0.00018  0.00003  0.00253  0.00937     76.1
         Total DFT energy =     -326.489250920588
         Total DFT energy =   -326.489250920588
@   13    -326.48925092 -2.5D-06  0.00016  0.00003  0.00345  0.01324     80.1
         Total DFT energy =     -326.489253304013
         Total DFT energy =   -326.489253304013
@   14    -326.48925330 -2.4D-06  0.00012  0.00003  0.00319  0.01165     84.3
         Total DFT energy =     -326.489255105834
         Total DFT energy =   -326.489255105834
@   15    -326.48925511 -1.8D-06  0.00013  0.00002  0.00327  0.00952     88.5
         Total DFT energy =     -326.489255641365
         Total DFT energy =   -326.489255641365
@   16    -326.48925564 -5.4D-07  0.00009  0.00002  0.00128  0.00323     92.5
         Total DFT energy =     -326.489255719933
         Total DFT energy =   -326.489255719933
@   17    -326.48925572 -7.9D-08  0.00005  0.00001  0.00049  0.00135     96.4
@   17    -326.48925572 -7.9D-08  0.00005  0.00001  0.00049  0.00135     96.4

 Output coordinates in angstroms (scale by  1.889725989 to convert to a.u.)

  No.       Tag          Charge          X              Y              Z
 ---- ---------------- ---------- -------------- -------------- --------------
    1 C                    6.0000     1.23549178     1.65609520     0.58374296
    2 C                    6.0000    -0.16101192     1.09758107     0.26188316
    3 C                    6.0000    -1.16440624     2.21183693    -0.08362088
    4 C                    6.0000    -0.12100120     0.04682212    -0.87741107
    5 N                    7.0000     0.71262721    -1.11676947    -0.58452054
    6 C                    6.0000     0.26015591    -2.15938751     0.17349006
    7 O                    8.0000    -0.87145351    -2.25079505     0.63635829
    8 H                    1.0000     1.64383933     2.24382626    -0.26732479
    9 H                    1.0000     1.95302464     0.84283981     0.81700444
   10 H                    1.0000     1.20323770     2.32613349     1.46649430
   11 H                    1.0000    -0.53784828     0.55970967     1.15680099
   12 H                    1.0000    -0.84837639     2.77408342    -0.98855325
   13 H                    1.0000    -2.17266508     1.79243782    -0.27788777
   14 H                    1.0000    -1.25845473     2.93885106     0.74827035
   15 H                    1.0000    -1.15037845    -0.32043989    -1.06065246
   16 H                    1.0000     0.24774654     0.50856867    -1.81789233
   17 H                    1.0000     1.69177143    -1.11503030    -0.87332024
   18 H                    1.0000     1.05229652    -2.95039716     0.31920350

         Total DFT energy =     -326.490312958034
 Zero-Point correction to Energy  =   97.299 kcal/mol  (  0.155056 au)
 Thermal correction to Energy     =  102.824 kcal/mol  (  0.163861 au)
 Thermal correction to Enthalpy   =  103.416 kcal/mol  (  0.164804 au)
 Total Entropy                    =   91.323 cal/mol-K
   - Translational                =   39.732 cal/mol-K (mol. weight = 101.0841)
   - Rotational                   =   27.964 cal/mol-K (symmetry #  =        1)
   - Vibrational                  =   23.627 cal/mol-K
   - Translational                  =    2.979 cal/mol-K
   - Rotational                     =    2.979 cal/mol-K
   - Vibrational                    =   25.024 cal/mol-K
 P.Frequency       -0.00       -0.00        0.00        0.00        0.00        0.00
 P.Frequency       45.17       76.89      181.40      196.74      210.34      271.55
 P.Frequency      298.98      346.30      402.34      476.87      524.15      736.26
 P.Frequency      808.12      880.62      904.23      932.95      946.30      968.93
 P.Frequency      988.59     1122.33     1134.98     1161.94     1197.91     1250.56
 P.Frequency     1295.24     1326.91     1340.87     1352.75     1364.49     1371.34
 P.Frequency     1397.86     1422.88     1429.37     1439.18     1445.80     1492.37
 P.Frequency     1763.28     2846.40     2965.61     2970.46     2988.94     3005.95
 P.Frequency     3050.86     3055.34     3061.12     3066.41     3068.80     3507.45

 Normal Eigenvalue ||           Projected Infra Red Intensities
  Mode   [cm**-1]  || [atomic units] [(debye/angs)**2] [(KM/mol)] [arbitrary]
 ------ ---------- || -------------- ----------------- ---------- -----------
    1       -0.000 ||    0.000990           0.023         0.965       0.511
    2       -0.000 ||    0.000508           0.012         0.495       0.262
    3        0.000 ||    0.002207           0.051         2.152       1.139
    4        0.000 ||    0.000210           0.005         0.205       0.109
    5        0.000 ||    0.001114           0.026         1.086       0.575
    6        0.000 ||    0.000319           0.007         0.311       0.165
    7       45.169 ||    0.006013           0.139         5.862       3.104
    8       76.891 ||    0.003677           0.085         3.585       1.898
    9      181.398 ||    0.016802           0.388        16.380       8.674
   10      196.737 ||    0.008488           0.196         8.274       4.382
   11      210.340 ||    0.000716           0.017         0.698       0.370
   12      271.552 ||    0.013407           0.309        13.070       6.921
   13      298.978 ||    0.020502           0.473        19.986      10.584
   14      346.302 ||    0.002597           0.060         2.532       1.341
   15      402.336 ||    0.004962           0.114         4.837       2.561
   16      476.867 ||    0.028286           0.653        27.575      14.603
   17      524.150 ||    0.027034           0.624        26.354      13.956
   18      736.264 ||    0.001921           0.044         1.873       0.992
   19      808.125 ||    0.005546           0.128         5.407       2.863
   20      880.623 ||    0.010671           0.246        10.403       5.509
   21      904.230 ||    0.001271           0.029         1.239       0.656
   22      932.954 ||    0.000519           0.012         0.506       0.268
   23      946.304 ||    0.001733           0.040         1.689       0.895
   24      968.928 ||    0.000173           0.004         0.169       0.089
   25      988.593 ||    0.004505           0.104         4.392       2.326
   26     1122.335 ||    0.002504           0.058         2.441       1.293
   27     1134.978 ||    0.000824           0.019         0.803       0.425
   28     1161.936 ||    0.006897           0.159         6.723       3.560
   29     1197.909 ||    0.051744           1.194        50.442      26.712
   30     1250.556 ||    0.027822           0.642        27.123      14.363
   31     1295.237 ||    0.000273           0.006         0.266       0.141
   32     1326.910 ||    0.002419           0.056         2.359       1.249
   33     1340.865 ||    0.008637           0.199         8.420       4.459
   34     1352.746 ||    0.006044           0.139         5.892       3.120
   35     1364.485 ||    0.004024           0.093         3.923       2.077
   36     1371.338 ||    0.012066           0.278        11.762       6.229
   37     1397.859 ||    0.006301           0.145         6.142       3.253
   38     1422.882 ||    0.001092           0.025         1.064       0.564
   39     1429.366 ||    0.004632           0.107         4.516       2.391
   40     1439.183 ||    0.009321           0.215         9.086       4.812
   41     1445.800 ||    0.013750           0.317        13.404       7.098
   42     1492.374 ||    0.111067           2.562       108.273      57.337
   43     1763.280 ||    0.254901           5.881       248.490     131.590
   44     2846.403 ||    0.158249           3.651       154.269      81.695
   45     2965.615 ||    0.027769           0.641        27.070      14.335
   46     2970.461 ||    0.019368           0.447        18.881       9.999
   47     2988.942 ||    0.024025           0.554        23.421      12.403
   48     3005.953 ||    0.011581           0.267        11.289       5.978
   49     3050.857 ||    0.016076           0.371        15.672       8.299
   50     3055.342 ||    0.016648           0.384        16.229       8.594
   51     3061.116 ||    0.025839           0.596        25.189      13.339
   52     3066.407 ||    0.020662           0.477        20.143      10.667
   53     3068.805 ||    0.023526           0.543        22.934      12.145
   54     3507.453 ||    0.013793           0.318        13.446       7.120
 ----------------------------------------------------------------------------

         Total DFT energy =     -326.502714242836

                       DFT Final Molecular Orbital Analysis
                       ------------------------------------

 Vector    1  Occ=2.000000D+00  E=-1.874860D+01

 Vector   48  Occ=0.000000D+00  E= 3.697528D-01

 Vector   49  Occ=0.000000D+00  E= 3.978213D-01

 Vector   50  Occ=0.000000D+00  E= 4.138826D-01

 Vector   51  Occ=0.000000D+00  E= 4.218954D-01

 Vector   52  Occ=0.000000D+00  E= 4.335766D-01

 Vector   53  Occ=0.000000D+00  E= 4.649212D-01

 Vector   54  Occ=0.000000D+00  E= 5.225380D-01

 Vector   55  Occ=0.000000D+00  E= 5.423802D-01

 Vector   56  Occ=0.000000D+00  E= 5.469244D-01

 Vector   57  Occ=0.000000D+00  E= 5.660126D-01

 Vector   58  Occ=0.000000D+00  E= 5.746466D-01

 Vector   59  Occ=0.000000D+00  E= 5.906908D-01

 Vector   60  Occ=0.000000D+00  E= 5.995031D-01

 Vector   61  Occ=0.000000D+00  E= 6.118170D-01

 Vector   62  Occ=0.000000D+00  E= 6.185850D-01

 Vector   63  Occ=0.000000D+00  E= 6.339563D-01

 Vector   64  Occ=0.000000D+00  E= 6.423486D-01

 Vector   65  Occ=0.000000D+00  E= 6.480895D-01

 Vector   66  Occ=0.000000D+00  E= 6.538957D-01

 Vector   67  Occ=0.000000D+00  E= 6.595978D-01

 Vector   68  Occ=0.000000D+00  E= 6.800324D-01

 Vector   69  Occ=0.000000D+00  E= 6.845431D-01

 Vector   70  Occ=0.000000D+00  E= 6.956497D-01

 Vector   71  Occ=0.000000D+00  E= 6.967493D-01

 Vector   72  Occ=0.000000D+00  E= 7.157293D-01

 Vector   73  Occ=0.000000D+00  E= 7.560504D-01

 Vector   74  Occ=0.000000D+00  E= 8.187266D-01

 Vector   75  Occ=0.000000D+00  E= 8.418047D-01

 Vector   76  Occ=0.000000D+00  E= 8.623511D-01

 Vector   77  Occ=0.000000D+00  E= 9.701647D-01

 Vector   78  Occ=0.000000D+00  E= 9.841709D-01

 Vector   79  Occ=0.000000D+00  E= 9.937161D-01

 Vector   80  Occ=0.000000D+00  E= 1.022021D+00

 Vector   81  Occ=0.000000D+00  E= 1.041866D+00

 Vector   82  Occ=0.000000D+00  E= 1.107875D+00

 Vector   83  Occ=0.000000D+00  E= 1.152686D+00

 Vector   84  Occ=0.000000D+00  E= 1.214020D+00

 Vector   85  Occ=0.000000D+00  E= 1.326543D+00

 Vector   86  Occ=0.000000D+00  E= 1.344696D+00

 Vector   87  Occ=0.000000D+00  E= 1.442019D+00

 Vector   88  Occ=0.000000D+00  E= 1.528242D+00

 Vector   89  Occ=0.000000D+00  E= 1.562154D+00

 Vector   90  Occ=0.000000D+00  E= 1.638531D+00

 Vector   91  Occ=0.000000D+00  E= 1.684580D+00

 Vector   92  Occ=0.000000D+00  E= 1.701209D+00

 Vector   93  Occ=0.000000D+00  E= 1.808122D+00

 Vector   94  Occ=0.000000D+00  E= 1.831283D+00

 Vector   95  Occ=0.000000D+00  E= 1.851568D+00

 Vector   96  Occ=0.000000D+00  E= 1.869795D+00

 Vector   97  Occ=0.000000D+00  E= 1.873105D+00

 Vector   98  Occ=0.000000D+00  E= 1.908747D+00

 Vector   99  Occ=0.000000D+00  E= 1.949747D+00

 Vector  100  Occ=0.000000D+00  E= 1.959832D+00

 Vector  101  Occ=0.000000D+00  E= 1.991735D+00

 Vector  102  Occ=0.000000D+00  E= 2.056241D+00

 Vector  103  Occ=0.000000D+00  E= 2.065475D+00

 Vector  104  Occ=0.000000D+00  E= 2.076285D+00

 Vector  105  Occ=0.000000D+00  E= 2.183651D+00

 Vector  106  Occ=0.000000D+00  E= 2.256325D+00

 Vector  107  Occ=0.000000D+00  E= 2.314563D+00

 Vector  108  Occ=0.000000D+00  E= 2.338467D+00

 Vector  109  Occ=0.000000D+00  E= 2.395059D+00

 Vector  110  Occ=0.000000D+00  E= 2.433416D+00

 Vector  111  Occ=0.000000D+00  E= 2.520161D+00

 Vector  112  Occ=0.000000D+00  E= 2.586586D+00

 Vector  113  Occ=0.000000D+00  E= 2.618280D+00

 Vector  114  Occ=0.000000D+00  E= 2.644933D+00

 Vector  115  Occ=0.000000D+00  E= 2.677394D+00

 Vector  116  Occ=0.000000D+00  E= 2.759019D+00

 Vector  117  Occ=0.000000D+00  E= 2.934674D+00

 Vector  118  Occ=0.000000D+00  E= 3.050691D+00

 Vector  119  Occ=0.000000D+00  E= 3.245295D+00

 Vector  120  Occ=0.000000D+00  E= 3.486447D+00

 Vector  121  Occ=0.000000D+00  E= 4.811550D+00

 Vector  122  Occ=0.000000D+00  E= 4.948486D+00

 Vector  123  Occ=0.000000D+00  E= 4.975164D+00

 Vector  124  Occ=0.000000D+00  E= 4.984702D+00

 Vector  125  Occ=0.000000D+00  E= 5.193535D+00

 Vector  126  Occ=0.000000D+00  E= 5.584264D+00

 Vector  127  Occ=0.000000D+00  E= 6.036276D+00

     Multipole analysis of the density
     ---------------------------------

     L   x y z        total         alpha         beta         nuclear
     -   - - -        -----         -----         ----         -------
     0   0 0 0     -0.000000    -28.000000    -28.000000     56.000000

     1   1 0 0      1.483844      0.613113      0.613113      0.257618
     1   0 1 0      0.804944     -0.442729     -0.442729      1.690403
     1   0 0 1     -0.870598     -0.973749     -0.973749      1.076899

     2   2 0 0    -31.989508   -102.066605   -102.066605    172.143703
     2   1 1 0     -5.653323      4.548917      4.548917    -14.751157
     2   1 0 1     -0.043735     -1.167350     -1.167350      2.290965
     2   0 2 0    -36.162677   -324.498403   -324.498403    612.834129
     2   0 1 1      2.307120      1.893794      1.893794     -1.480468

 Total times  cpu:      430.6s     wall:      430.6s
