         Total DFT energy =     -252.543687097943
@ Step       Energy      Delta E   Gmax     Grms     Xrms     Xmax   Walltime
@ ---- ---------------- -------- -------- -------- -------- -------- --------
@    0    -252.54368710  0.0D+00  0.01665  0.00416  0.00000  0.00000      4.3
         Total DFT energy =     -252.547203228405
         Total DFT energy =   -252.547203228405
@    1    -252.54720323 -3.5D-03  0.00387  0.00067  0.04884  0.16889      7.9
         Total DFT energy =     -252.547521987735
         Total DFT energy =     -252.547589865491
@    2    -252.54758987 -3.9D-04  0.00192  0.00048  0.02045  0.06121     13.3
         Total DFT energy =     -252.547688344994
         Total DFT energy =     -252.547709158505
@    3    -252.54770916 -1.2D-04  0.00127  0.00021  0.00817  0.02406     18.5
         Total DFT energy =     -252.547741479296
         Total DFT energy =     -252.547754753813
@    4    -252.54775475 -4.6D-05  0.00073  0.00017  0.00843  0.02233     23.4
         Total DFT energy =     -252.547786528942
         Total DFT energy =     -252.547827311155
@    5    -252.54782731 -7.3D-05  0.00098  0.00024  0.02039  0.07375     28.2
         Total DFT energy =     -252.547855809013
         Total DFT energy =     -252.547870449671
@    6    -252.54787045 -4.3D-05  0.00180  0.00023  0.01235  0.03971     32.7
         Total DFT energy =     -252.547886225388
         Total DFT energy =     -252.547890352442
@    7    -252.54789035 -2.0D-05  0.00188  0.00022  0.00900  0.02701     37.8
         Total DFT energy =     -252.547898975891
         Total DFT energy =     -252.547901404733
@    8    -252.54790140 -1.1D-05  0.00073  0.00009  0.00415  0.01112     42.7
         Total DFT energy =     -252.547906358905
         Total DFT energy =   -252.547906358905
@    9    -252.54790636 -5.0D-06  0.00039  0.00005  0.00265  0.00730     45.5
         Total DFT energy =     -252.547912647208
         Total DFT energy =     -252.547912060896
@   10    -252.54791206 -5.7D-06  0.00064  0.00009  0.01140  0.03311     49.7
         Total DFT energy =     -252.547914490404
         Total DFT energy =   -252.547914490404
@   11    -252.54791449 -2.4D-06  0.00016  0.00003  0.00405  0.01089     52.6
         Total DFT energy =     -252.547915691477
         Total DFT energy =   -252.547915691477
@   12    -252.54791569 -1.2D-06  0.00006  0.00001  0.00087  0.00286     55.1
         Total DFT energy =     -252.547917512976
         Total DFT energy =   -252.547917512976
@   13    -252.54791751 -1.8D-06  0.00010  0.00002  0.00235  0.00912     58.2
         Total DFT energy =     -252.547918516528
         Total DFT energy =   -252.547918516528
@   14    -252.54791852 -1.0D-06  0.00012  0.00002  0.00162  0.00719     61.0
         Total DFT energy =     -252.547919802833
         Total DFT energy =   -252.547919802833
@   15    -252.54791980 -1.3D-06  0.00007  0.00002  0.00226  0.00981     63.8
         Total DFT energy =     -252.547921040039
         Total DFT energy =   -252.547921040039
@   16    -252.54792104 -1.2D-06  0.00011  0.00002  0.00261  0.00948     66.6
         Total DFT energy =     -252.547921650256
         Total DFT energy =   -252.547921650256
@   17    -252.54792165 -6.1D-07  0.00010  0.00002  0.00255  0.00633     69.5
         Total DFT energy =     -252.547921758392
         Total DFT energy =   -252.547921758392
@   18    -252.54792176 -1.1D-07  0.00004  0.00001  0.00187  0.00540     72.4
         Total DFT energy =     -252.547921757693
         Total DFT energy =   -252.547921757693
@   19    -252.54792176  7.0D-10  0.00001  0.00000  0.00078  0.00218     75.0
         Total DFT energy =     -252.547921809255
         Total DFT energy =   -252.547921809255
@   20    -252.54792181 -5.2D-08  0.00002  0.00000  0.00021  0.00065     77.6
@   20    -252.54792181 -5.2D-08  0.00002  0.00000  0.00021  0.00065     77.6

 Output coordinates in angstroms (scale by  1.889725989 to convert to a.u.)

  No.       Tag          Charge          X              Y              Z
 ---- ---------------- ---------- -------------- -------------- --------------
    1 C                    6.0000    -0.12454895    -2.72549827    -0.14731809
    2 N                    7.0000     0.32308533    -1.41458449     0.28800626
    3 C                    6.0000    -0.53894389    -0.31939545    -0.13175761
    4 C                    6.0000    -0.00412629     1.05037526     0.32299345
    5 C                    6.0000     1.39907684     1.32968416    -0.22839660
    6 C                    6.0000    -0.99460556     2.16566580    -0.03104158
    7 H                    1.0000    -0.10307053    -2.77861052    -1.25615537
    8 H                    1.0000    -1.16583149    -2.99884182     0.17161022
    9 H                    1.0000     0.56355044    -3.50758242     0.23222847
   10 H                    1.0000     0.41099523    -1.39823413     1.31505160
   11 H                    1.0000    -0.59658537    -0.33055305    -1.24318179
   12 H                    1.0000    -1.59584700    -0.43140847     0.23320737
   13 H                    1.0000     0.06933599     1.01035720     1.43370181
   14 H                    1.0000     1.37486771     1.41640515    -1.33536951
   15 H                    1.0000     1.80706541     2.27719163     0.17711999
   16 H                    1.0000     2.08848598     0.50314656     0.02622689
   17 H                    1.0000    -1.99573125     1.96893142     0.40246674
   18 H                    1.0000    -0.64514549     3.14565511     0.34966468
   19 H                    1.0000    -1.11332343     2.25457421    -1.13124373

         Total DFT energy =     -252.556084424389
 Zero-Point correction to Energy  =  108.303 kcal/mol  (  0.172592 au)
 Thermal correction to Energy     =  113.691 kcal/mol  (  0.181179 au)
 Thermal correction to Enthalpy   =  114.284 kcal/mol  (  0.182122 au)
 Total Entropy                    =   89.098 cal/mol-K
   - Translational                =   39.289 cal/mol-K (mol. weight =  87.1048)
   - Rotational                   =   27.233 cal/mol-K (symmetry #  =        1)
   - Vibrational                  =   22.576 cal/mol-K
   - Translational                  =    2.979 cal/mol-K
   - Rotational                     =    2.979 cal/mol-K
   - Vibrational                    =   23.945 cal/mol-K
 P.Frequency       -0.00        0.00        0.00        0.00        0.00        0.00
 P.Frequency       57.76       90.50      160.65      176.01      216.77      236.43
 P.Frequency      313.90      368.49      432.79      462.12      772.18      826.52
 P.Frequency      898.10      904.98      931.17      955.25      990.52     1070.93
 P.Frequency     1102.69     1141.29     1169.35     1178.01     1198.55     1250.08
 P.Frequency     1287.92     1320.75     1343.81     1354.53     1362.21     1400.08
 P.Frequency     1419.18     1421.30     1424.31     1435.02     1438.30     1447.00
 P.Frequency     1456.65     1477.58     2839.72     2858.54     2950.15     2976.03
 P.Frequency     2978.67     2983.63     3005.56     3059.60     3063.12     3063.60
 P.Frequency     3074.15     3093.94     3355.04

 Normal Eigenvalue ||           Projected Infra Red Intensities
  Mode   [cm**-1]  || [atomic units] [(debye/angs)**2] [(KM/mol)] [arbitrary]
 ------ ---------- || -------------- ----------------- ---------- -----------
    1       -0.000 ||    0.000025           0.001         0.024       0.017
    2        0.000 ||    0.000321           0.007         0.313       0.218
    3        0.000 ||    0.000035           0.001         0.034       0.023
    4        0.000 ||    0.000143           0.003         0.139       0.097
    5        0.000 ||    0.000011           0.000         0.011       0.007
    6        0.000 ||    0.000051           0.001         0.050       0.034
    7       57.763 ||    0.001227           0.028         1.196       0.831
    8       90.499 ||    0.000872           0.020         0.850       0.591
    9      160.652 ||    0.000365           0.008         0.356       0.247
   10      176.006 ||    0.000085           0.002         0.082       0.057
   11      216.765 ||    0.000383           0.009         0.373       0.259
   12      236.435 ||    0.001725           0.040         1.681       1.168
   13      313.905 ||    0.000934           0.022         0.910       0.633
   14      368.492 ||    0.002467           0.057         2.405       1.671
   15      432.794 ||    0.001632           0.038         1.591       1.106
   16      462.117 ||    0.000089           0.002         0.087       0.060
   17      772.179 ||    0.095154           2.195        92.761      64.462
   18      826.515 ||    0.001617           0.037         1.577       1.096
   19      898.099 ||    0.001123           0.026         1.094       0.760
   20      904.977 ||    0.002836           0.065         2.765       1.921
   21      931.172 ||    0.001044           0.024         1.018       0.708
   22      955.254 ||    0.004113           0.095         4.010       2.786
   23      990.521 ||    0.008325           0.192         8.115       5.640
   24     1070.927 ||    0.013065           0.301        12.736       8.851
   25     1102.691 ||    0.002404           0.055         2.344       1.629
   26     1141.286 ||    0.012199           0.281        11.892       8.264
   27     1169.354 ||    0.000801           0.018         0.781       0.543
   28     1178.008 ||    0.039069           0.901        38.086      26.467
   29     1198.550 ||    0.006543           0.151         6.379       4.433
   30     1250.082 ||    0.001761           0.041         1.717       1.193
   31     1287.916 ||    0.007661           0.177         7.468       5.190
   32     1320.750 ||    0.001290           0.030         1.258       0.874
   33     1343.815 ||    0.011852           0.273        11.554       8.029
   34     1354.526 ||    0.001485           0.034         1.448       1.006
   35     1362.212 ||    0.013613           0.314        13.270       9.222
   36     1400.082 ||    0.001359           0.031         1.325       0.921
   37     1419.179 ||    0.004958           0.114         4.834       3.359
   38     1421.304 ||    0.012618           0.291        12.301       8.548
   39     1424.314 ||    0.008462           0.195         8.249       5.733
   40     1435.018 ||    0.005431           0.125         5.294       3.679
   41     1438.304 ||    0.002923           0.067         2.850       1.980
   42     1446.995 ||    0.007232           0.167         7.050       4.899
   43     1456.654 ||    0.004879           0.113         4.756       3.305
   44     1477.580 ||    0.026288           0.606        25.627      17.809
   45     2839.722 ||    0.084320           1.945        82.199      57.122
   46     2858.544 ||    0.169194           3.903       164.939     114.621
   47     2950.150 ||    0.016911           0.390        16.486      11.457
   48     2976.032 ||    0.026817           0.619        26.142      18.167
   49     2978.673 ||    0.013225           0.305        12.892       8.959
   50     2983.631 ||    0.060761           1.402        59.233      41.163
   51     3005.560 ||    0.036392           0.840        35.476      24.654
   52     3059.602 ||    0.009547           0.220         9.307       6.467
   53     3063.120 ||    0.038975           0.899        37.995      26.404
   54     3063.596 ||    0.034095           0.787        33.238      23.098
   55     3074.145 ||    0.027811           0.642        27.111      18.840
   56     3093.937 ||    0.012081           0.279        11.778       8.185
   57     3355.040 ||    0.000794           0.018         0.774       0.538
 ----------------------------------------------------------------------------

         Total DFT energy =     -252.560287594588

                       DFT Final Molecular Orbital Analysis
                       ------------------------------------

 Vector    1  Occ=2.000000D+00  E=-1.399253D+01

 Vector   37  Occ=0.000000D+00  E= 1.418119D-01

 Vector   38  Occ=0.000000D+00  E= 1.596985D-01

 Vector   39  Occ=0.000000D+00  E= 1.831363D-01

 Vector   40  Occ=0.000000D+00  E= 1.921568D-01

 Vector   41  Occ=0.000000D+00  E= 2.052869D-01

 Vector   42  Occ=0.000000D+00  E= 2.118780D-01

 Vector   43  Occ=0.000000D+00  E= 2.386727D-01

 Vector   44  Occ=0.000000D+00  E= 3.746005D-01

 Vector   45  Occ=0.000000D+00  E= 3.830861D-01

 Vector   46  Occ=0.000000D+00  E= 3.978801D-01

 Vector   47  Occ=0.000000D+00  E= 4.073826D-01

 Vector   48  Occ=0.000000D+00  E= 4.142710D-01

 Vector   49  Occ=0.000000D+00  E= 4.421717D-01

 Vector   50  Occ=0.000000D+00  E= 4.807640D-01

 Vector   51  Occ=0.000000D+00  E= 4.913612D-01

 Vector   52  Occ=0.000000D+00  E= 5.449970D-01

 Vector   53  Occ=0.000000D+00  E= 5.554420D-01

 Vector   54  Occ=0.000000D+00  E= 5.708208D-01

 Vector   55  Occ=0.000000D+00  E= 5.942082D-01

 Vector   56  Occ=0.000000D+00  E= 6.020293D-01

 Vector   57  Occ=0.000000D+00  E= 6.092700D-01

 Vector   58  Occ=0.000000D+00  E= 6.215462D-01

 Vector   59  Occ=0.000000D+00  E= 6.286863D-01

 Vector   60  Occ=0.000000D+00  E= 6.370530D-01

 Vector   61  Occ=0.000000D+00  E= 6.460568D-01

 Vector   62  Occ=0.000000D+00  E= 6.480268D-01

 Vector   63  Occ=0.000000D+00  E= 6.538261D-01

 Vector   64  Occ=0.000000D+00  E= 6.654391D-01

 Vector   65  Occ=0.000000D+00  E= 6.668586D-01

 Vector   66  Occ=0.000000D+00  E= 6.712512D-01

 Vector   67  Occ=0.000000D+00  E= 6.845164D-01

 Vector   68  Occ=0.000000D+00  E= 6.955350D-01

 Vector   69  Occ=0.000000D+00  E= 6.982986D-01

 Vector   70  Occ=0.000000D+00  E= 7.049283D-01

 Vector   71  Occ=0.000000D+00  E= 7.281378D-01

 Vector   72  Occ=0.000000D+00  E= 7.662225D-01

 Vector   73  Occ=0.000000D+00  E= 8.464370D-01

 Vector   74  Occ=0.000000D+00  E= 9.270565D-01

 Vector   75  Occ=0.000000D+00  E= 9.615096D-01

 Vector   76  Occ=0.000000D+00  E= 9.887476D-01

 Vector   77  Occ=0.000000D+00  E= 1.028612D+00

 Vector   78  Occ=0.000000D+00  E= 1.092512D+00

 Vector   79  Occ=0.000000D+00  E= 1.161901D+00

 Vector   80  Occ=0.000000D+00  E= 1.189508D+00

 Vector   81  Occ=0.000000D+00  E= 1.362807D+00

 Vector   82  Occ=0.000000D+00  E= 1.387465D+00

 Vector   83  Occ=0.000000D+00  E= 1.574589D+00

 Vector   84  Occ=0.000000D+00  E= 1.621729D+00

 Vector   85  Occ=0.000000D+00  E= 1.683949D+00

 Vector   86  Occ=0.000000D+00  E= 1.733645D+00

 Vector   87  Occ=0.000000D+00  E= 1.745746D+00

 Vector   88  Occ=0.000000D+00  E= 1.844213D+00

 Vector   89  Occ=0.000000D+00  E= 1.854359D+00

 Vector   90  Occ=0.000000D+00  E= 1.866212D+00

 Vector   91  Occ=0.000000D+00  E= 1.906603D+00

 Vector   92  Occ=0.000000D+00  E= 1.933834D+00

 Vector   93  Occ=0.000000D+00  E= 1.952180D+00

 Vector   94  Occ=0.000000D+00  E= 1.977667D+00

 Vector   95  Occ=0.000000D+00  E= 1.992674D+00

 Vector   96  Occ=0.000000D+00  E= 2.012872D+00

 Vector   97  Occ=0.000000D+00  E= 2.048137D+00

 Vector   98  Occ=0.000000D+00  E= 2.049682D+00

 Vector   99  Occ=0.000000D+00  E= 2.071588D+00

 Vector  100  Occ=0.000000D+00  E= 2.073055D+00

 Vector  101  Occ=0.000000D+00  E= 2.281868D+00

 Vector  102  Occ=0.000000D+00  E= 2.341861D+00

 Vector  103  Occ=0.000000D+00  E= 2.352210D+00

 Vector  104  Occ=0.000000D+00  E= 2.464270D+00

 Vector  105  Occ=0.000000D+00  E= 2.481663D+00

 Vector  106  Occ=0.000000D+00  E= 2.504414D+00

 Vector  107  Occ=0.000000D+00  E= 2.588996D+00

 Vector  108  Occ=0.000000D+00  E= 2.669335D+00

 Vector  109  Occ=0.000000D+00  E= 2.832663D+00

 Vector  110  Occ=0.000000D+00  E= 2.985746D+00

 Vector  111  Occ=0.000000D+00  E= 4.822324D+00

 Vector  112  Occ=0.000000D+00  E= 4.929639D+00

 Vector  113  Occ=0.000000D+00  E= 4.951881D+00

 Vector  114  Occ=0.000000D+00  E= 4.986507D+00

 Vector  115  Occ=0.000000D+00  E= 5.197090D+00

 Vector  116  Occ=0.000000D+00  E= 5.589685D+00

     Multipole analysis of the density
     ---------------------------------

     L   x y z        total         alpha         beta         nuclear
     -   - - -        -----         -----         ----         -------
     0   0 0 0     -0.000000    -25.000000    -25.000000     50.000000

     1   1 0 0     -0.342555      0.035197      0.035197     -0.412950
     1   0 1 0     -0.107590     -0.274825     -0.274825      0.442061
     1   0 0 1      0.364009      0.089173      0.089173      0.185663

     2   2 0 0    -32.226788    -87.831924    -87.831924    143.437060
     2   1 1 0      0.433182      2.156400      2.156400     -3.879619
     2   1 0 1      0.476059      1.511693      1.511693     -2.547327
     2   0 2 0    -29.449401   -306.027550   -306.027550    582.605698
     2   0 1 1     -0.681643      0.430391      0.430391     -1.542424

 Total times  cpu:      418.7s     wall:      418.7s
