         Total DFT energy =       -1.155166737987

 Vector    1  Occ=2.000000D+00  E=-3.853426D-01  Symmetry=a1g

 Vector    2  Occ=0.000000D+00  E= 6.500205D-02  Symmetry=a2u

 Vector    3  Occ=0.000000D+00  E= 3.015523D-01  Symmetry=a1g

 Vector    4  Occ=0.000000D+00  E= 7.684508D-01  Symmetry=a2u

@ Step       Energy      Delta E   Gmax     Grms     Xrms     Xmax   Walltime
@ ---- ---------------- -------- -------- -------- -------- -------- --------
@    0      -1.15516674  0.0D+00  0.05106  0.05106  0.00000  0.00000      0.1
         Total DFT energy =       -1.157644672853

 Vector    1  Occ=2.000000D+00  E=-3.696477D-01  Symmetry=a1g

 Vector    2  Occ=0.000000D+00  E= 4.178512D-02  Symmetry=a2u

 Vector    3  Occ=0.000000D+00  E= 3.202922D-01  Symmetry=a1g

 Vector    4  Occ=0.000000D+00  E= 6.849557D-01  Symmetry=a2u

         Total DFT energy =       -1.158091522764

 Vector    1  Occ=2.000000D+00  E=-3.742396D-01  Symmetry=a1g

 Vector    2  Occ=0.000000D+00  E= 4.903763D-02  Symmetry=a2u

 Vector    3  Occ=0.000000D+00  E= 3.144026D-01  Symmetry=a1g

 Vector    4  Occ=0.000000D+00  E= 7.084529D-01  Symmetry=a2u

@    1      -1.15809152 -2.9D-03  0.00052  0.00052  0.03494  0.06052      0.2
         Total DFT energy =       -1.158091905742

 Vector    1  Occ=2.000000D+00  E=-3.741308D-01  Symmetry=a1g

 Vector    2  Occ=0.000000D+00  E= 4.887036D-02  Symmetry=a2u

 Vector    3  Occ=0.000000D+00  E= 3.145381D-01  Symmetry=a1g

 Vector    4  Occ=0.000000D+00  E= 7.078867D-01  Symmetry=a2u

         Total DFT energy =     -1.158091905742
@    2      -1.15809191 -3.8D-07  0.00009  0.00009  0.00036  0.00062      0.2
@    2      -1.15809191 -3.8D-07  0.00009  0.00009  0.00036  0.00062      0.2

 Output coordinates in angstroms (scale by  1.889725989 to convert to a.u.)

  No.       Tag          Charge          X              Y              Z
 ---- ---------------- ---------- -------------- -------------- --------------
    1 H                    1.0000     0.00000000     0.00000000    -0.38635630
    2 H                    1.0000     0.00000000     0.00000000     0.38635630

         Total DFT energy =       -1.158098982221

 Vector    1  Occ=2.000000D+00  E=-3.741328D-01

 Vector    2  Occ=0.000000D+00  E= 4.887587D-02

 Vector    3  Occ=0.000000D+00  E= 3.145383D-01

 Vector    4  Occ=0.000000D+00  E= 7.079096D-01

 Zero-Point correction to Energy  =    6.075 kcal/mol  (  0.009681 au)
 Thermal correction to Energy     =    7.556 kcal/mol  (  0.012041 au)
 Thermal correction to Enthalpy   =    8.148 kcal/mol  (  0.012985 au)
 Total Entropy                    =   31.275 cal/mol-K
   - Translational                =   28.068 cal/mol-K (mol. weight =   2.0156)
   - Rotational                   =    3.208 cal/mol-K (symmetry #  =        2)
   - Vibrational                  =    0.000 cal/mol-K
   - Translational                  =    2.979 cal/mol-K
   - Rotational                     =    1.986 cal/mol-K
   - Vibrational                    =    0.000 cal/mol-K
 P.Frequency       -0.00        0.00        0.00        0.00        0.00     4251.67

 Normal Eigenvalue ||           Projected Infra Red Intensities
  Mode   [cm**-1]  || [atomic units] [(debye/angs)**2] [(KM/mol)] [arbitrary]
 ------ ---------- || -------------- ----------------- ---------- -----------
    1       -0.000 ||    0.000000           0.000         0.000      59.998
    2        0.000 ||    0.000000           0.000         0.000       0.000
    3        0.000 ||    0.000000           0.000         0.000       0.000
    4        0.000 ||    0.000000           0.000         0.000       0.000
    5        0.000 ||    0.000000           0.000         0.000       0.000
    6     4251.668 ||    0.000000           0.000         0.000       0.002
 ----------------------------------------------------------------------------

         Total DFT energy =       -1.158278649184

                       DFT Final Molecular Orbital Analysis
                       ------------------------------------

 Vector    1  Occ=2.000000D+00  E=-3.755796D-01  Symmetry=a1g

 Vector    2  Occ=0.000000D+00  E= 5.013679D-02  Symmetry=a2u

 Vector    3  Occ=0.000000D+00  E= 3.134617D-01  Symmetry=a1g

 Vector    4  Occ=0.000000D+00  E= 7.078804D-01  Symmetry=a2u

     Multipole analysis of the density
     ---------------------------------

     L   x y z        total         alpha         beta         nuclear
     -   - - -        -----         -----         ----         -------
     0   0 0 0     -0.000000     -1.000000     -1.000000      2.000000

     1   1 0 0      0.000000      0.000000      0.000000      0.000000
     1   0 1 0      0.000000      0.000000      0.000000      0.000000
     1   0 0 1      0.000000      0.000000      0.000000      0.000000

     2   2 0 0     -1.505366     -0.752683     -0.752683      0.000000
     2   1 1 0      0.000000      0.000000      0.000000      0.000000
     2   1 0 1      0.000000      0.000000      0.000000      0.000000
     2   0 2 0     -1.505366     -0.752683     -0.752683      0.000000
     2   0 1 1      0.000000      0.000000      0.000000      0.000000

 Total times  cpu:        0.4s     wall:        0.4s
