         Total DFT energy =       -1.175957044334

 Vector    1  Occ=2.000000D+00  E=-4.440229D-01  Symmetry=a1g

 Vector    2  Occ=0.000000D+00  E= 6.565944D-02  Symmetry=a2u

 Vector    3  Occ=0.000000D+00  E= 1.941779D-01  Symmetry=a1g

 Vector    4  Occ=0.000000D+00  E= 4.897637D-01  Symmetry=a2u

 Vector    5  Occ=0.000000D+00  E= 2.062757D+00  Symmetry=a1g

 Vector    6  Occ=0.000000D+00  E= 2.430560D+00  Symmetry=a2u

@ Step       Energy      Delta E   Gmax     Grms     Xrms     Xmax   Walltime
@ ---- ---------------- -------- -------- -------- -------- -------- --------
@    0      -1.17595704  0.0D+00  0.02640  0.02640  0.00000  0.00000      0.6
         Total DFT energy =       -1.176649558934

 Vector    1  Occ=2.000000D+00  E=-4.341405D-01  Symmetry=a1g

 Vector    2  Occ=0.000000D+00  E= 5.608874D-02  Symmetry=a2u

 Vector    3  Occ=0.000000D+00  E= 1.970879D-01  Symmetry=a1g

 Vector    4  Occ=0.000000D+00  E= 4.692538D-01  Symmetry=a2u

 Vector    5  Occ=0.000000D+00  E= 2.125234D+00  Symmetry=a1g

 Vector    6  Occ=0.000000D+00  E= 2.369278D+00  Symmetry=a2u

         Total DFT energy =       -1.176772616108

 Vector    1  Occ=2.000000D+00  E=-4.369972D-01  Symmetry=a1g

 Vector    2  Occ=0.000000D+00  E= 5.896556D-02  Symmetry=a2u

 Vector    3  Occ=0.000000D+00  E= 1.962204D-01  Symmetry=a1g

 Vector    4  Occ=0.000000D+00  E= 4.751896D-01  Symmetry=a2u

 Vector    5  Occ=0.000000D+00  E= 2.107174D+00  Symmetry=a1g

 Vector    6  Occ=0.000000D+00  E= 2.386159D+00  Symmetry=a2u

@    1      -1.17677262 -8.2D-04  0.00017  0.00017  0.01839  0.03185      1.4
         Total DFT energy =       -1.176772655301

 Vector    1  Occ=2.000000D+00  E=-4.369548D-01  Symmetry=a1g

 Vector    2  Occ=0.000000D+00  E= 5.891995D-02  Symmetry=a2u

 Vector    3  Occ=0.000000D+00  E= 1.962327D-01  Symmetry=a1g

 Vector    4  Occ=0.000000D+00  E= 4.750947D-01  Symmetry=a2u

 Vector    5  Occ=0.000000D+00  E= 2.107456D+00  Symmetry=a1g

 Vector    6  Occ=0.000000D+00  E= 2.385885D+00  Symmetry=a2u

         Total DFT energy =     -1.176772655301
@    2      -1.17677266 -3.9D-08  0.00002  0.00002  0.00012  0.00021      1.8
@    2      -1.17677266 -3.9D-08  0.00002  0.00002  0.00012  0.00021      1.8

 Output coordinates in angstroms (scale by  1.889725989 to convert to a.u.)

  No.       Tag          Charge          X              Y              Z
 ---- ---------------- ---------- -------------- -------------- --------------
    1 H                    1.0000     0.00000000     0.00000000    -0.37096276
    2 H                    1.0000     0.00000000     0.00000000     0.37096276

         Total DFT energy =       -1.176772663302

 Vector    1  Occ=2.000000D+00  E=-4.369524D-01

 Vector    2  Occ=0.000000D+00  E= 5.892103D-02

 Vector    3  Occ=0.000000D+00  E= 1.962338D-01

 Vector    4  Occ=0.000000D+00  E= 4.750963D-01

 Vector    5  Occ=0.000000D+00  E= 2.107458D+00

 Vector    6  Occ=0.000000D+00  E= 2.385888D+00

 Zero-Point correction to Energy  =    6.273 kcal/mol  (  0.009996 au)
 Thermal correction to Energy     =    7.753 kcal/mol  (  0.012356 au)
 Thermal correction to Enthalpy   =    8.346 kcal/mol  (  0.013299 au)
 Total Entropy                    =   31.114 cal/mol-K
   - Translational                =   28.068 cal/mol-K (mol. weight =   2.0156)
   - Rotational                   =    3.046 cal/mol-K (symmetry #  =        2)
   - Vibrational                  =    0.000 cal/mol-K
   - Translational                  =    2.979 cal/mol-K
   - Rotational                     =    1.986 cal/mol-K
   - Vibrational                    =    0.000 cal/mol-K
 P.Frequency        0.00        0.00        0.00        0.00        0.00     4389.97

 Normal Eigenvalue ||           Projected Infra Red Intensities
  Mode   [cm**-1]  || [atomic units] [(debye/angs)**2] [(KM/mol)] [arbitrary]
 ------ ---------- || -------------- ----------------- ---------- -----------
    1        0.000 ||    0.000000           0.000         0.000       0.000
    2        0.000 ||    0.000000           0.000         0.000       0.000
    3        0.000 ||    0.000000           0.000         0.000       0.000
    4        0.000 ||    0.000000           0.000         0.000       0.000
    5        0.000 ||    0.000000           0.000         0.000      60.000
    6     4389.974 ||    0.000000           0.000         0.000       0.000
 ----------------------------------------------------------------------------

         Total DFT energy =       -1.176901144608

                       DFT Final Molecular Orbital Analysis
                       ------------------------------------

 Vector    1  Occ=2.000000D+00  E=-4.380680D-01  Symmetry=a1g

 Vector    2  Occ=0.000000D+00  E= 6.018208D-02  Symmetry=a2u

 Vector    3  Occ=0.000000D+00  E= 1.956180D-01  Symmetry=a1g

 Vector    4  Occ=0.000000D+00  E= 4.753804D-01  Symmetry=a2u

 Vector    5  Occ=0.000000D+00  E= 2.106267D+00  Symmetry=a1g

 Vector    6  Occ=0.000000D+00  E= 2.385599D+00  Symmetry=a2u

     Multipole analysis of the density
     ---------------------------------

     L   x y z        total         alpha         beta         nuclear
     -   - - -        -----         -----         ----         -------
     0   0 0 0     -0.000000     -1.000000     -1.000000      2.000000

     1   1 0 0      0.000000      0.000000      0.000000      0.000000
     1   0 1 0      0.000000      0.000000      0.000000      0.000000
     1   0 0 1      0.000000      0.000000      0.000000      0.000000

     2   2 0 0     -1.534140     -0.767070     -0.767070      0.000000
     2   1 1 0      0.000000      0.000000      0.000000      0.000000
     2   1 0 1      0.000000      0.000000      0.000000      0.000000
     2   0 2 0     -1.534140     -0.767070     -0.767070      0.000000
     2   0 1 1      0.000000      0.000000      0.000000      0.000000

 Total times  cpu:        1.6s     wall:        3.5s
