         Total DFT energy =     -252.543675666176
@ Step       Energy      Delta E   Gmax     Grms     Xrms     Xmax   Walltime
@ ---- ---------------- -------- -------- -------- -------- -------- --------
@    0    -252.54367567  0.0D+00  0.01656  0.00419  0.00000  0.00000      4.2
         Total DFT energy =     -252.547199018562
         Total DFT energy =   -252.547199018562
@    1    -252.54719902 -3.5D-03  0.00394  0.00068  0.04672  0.17483      7.9
         Total DFT energy =     -252.547512334109
         Total DFT energy =     -252.547578018344
@    2    -252.54757802 -3.8D-04  0.00193  0.00048  0.02022  0.06089     13.2
         Total DFT energy =     -252.547677767508
         Total DFT energy =     -252.547697475517
@    3    -252.54769748 -1.2D-04  0.00097  0.00020  0.00833  0.02507     18.3
         Total DFT energy =     -252.547730650803
         Total DFT energy =     -252.547744948536
@    4    -252.54774495 -4.7D-05  0.00077  0.00017  0.00870  0.02317     23.1
         Total DFT energy =     -252.547777837380
         Total DFT energy =     -252.547821740922
@    5    -252.54782174 -7.7D-05  0.00109  0.00024  0.02056  0.07374     28.1
         Total DFT energy =     -252.547852483636
         Total DFT energy =     -252.547868161678
@    6    -252.54786816 -4.6D-05  0.00198  0.00025  0.01509  0.05075     32.7
         Total DFT energy =     -252.547884269714
         Total DFT energy =     -252.547888457567
@    7    -252.54788846 -2.0D-05  0.00165  0.00019  0.00667  0.01775     37.5
         Total DFT energy =     -252.547896715177
         Total DFT energy =     -252.547900332640
@    8    -252.54790033 -1.2D-05  0.00125  0.00014  0.00750  0.02207     42.3
         Total DFT energy =     -252.547905359299
         Total DFT energy =     -252.547907531123
@    9    -252.54790753 -7.2D-06  0.00100  0.00011  0.00407  0.01249     46.9
         Total DFT energy =     -252.547910446178
         Total DFT energy =   -252.547910446178
@   10    -252.54791045 -2.9D-06  0.00030  0.00004  0.00130  0.00392     49.7
         Total DFT energy =     -252.547913592671
         Total DFT energy =   -252.547913592671
@   11    -252.54791359 -3.1D-06  0.00025  0.00003  0.00290  0.01069     52.6
         Total DFT energy =     -252.547915481685
         Total DFT energy =   -252.547915481685
@   12    -252.54791548 -1.9D-06  0.00030  0.00004  0.00222  0.00897     55.4
         Total DFT energy =     -252.547917078072
         Total DFT energy =   -252.547917078072
@   13    -252.54791708 -1.6D-06  0.00015  0.00002  0.00219  0.00938     58.3
         Total DFT energy =     -252.547918288977
         Total DFT energy =   -252.547918288977
@   14    -252.54791829 -1.2D-06  0.00006  0.00002  0.00179  0.00719     61.2
         Total DFT energy =     -252.547919626063
         Total DFT energy =   -252.547919626063
@   15    -252.54791963 -1.3D-06  0.00021  0.00003  0.00242  0.00751     64.0
         Total DFT energy =     -252.547920646268
         Total DFT energy =   -252.547920646268
@   16    -252.54792065 -1.0D-06  0.00025  0.00003  0.00277  0.00732     66.9
         Total DFT energy =     -252.547921176061
         Total DFT energy =   -252.547921176061
@   17    -252.54792118 -5.3D-07  0.00013  0.00002  0.00244  0.00636     69.7
         Total DFT energy =     -252.547921339488
         Total DFT energy =   -252.547921339488
@   18    -252.54792134 -1.6D-07  0.00002  0.00001  0.00110  0.00277     72.5
         Total DFT energy =     -252.547921458837
         Total DFT energy =   -252.547921458837
@   19    -252.54792146 -1.2D-07  0.00003  0.00001  0.00038  0.00097     75.1
@   19    -252.54792146 -1.2D-07  0.00003  0.00001  0.00038  0.00097     75.1

 Output coordinates in angstroms (scale by  1.889725989 to convert to a.u.)

  No.       Tag          Charge          X              Y              Z
 ---- ---------------- ---------- -------------- -------------- --------------
    1 C                    6.0000    -0.12678207    -2.72581556    -0.14447512
    2 N                    7.0000     0.32266465    -1.41489039     0.28901715
    3 C                    6.0000    -0.53866543    -0.31935139    -0.13124581
    4 C                    6.0000    -0.00294849     1.05029565     0.32276138
    5 C                    6.0000     1.40070253     1.32814755    -0.22817287
    6 C                    6.0000    -0.99240052     2.16611232    -0.03242686
    7 H                    1.0000    -0.10624542    -2.78012538    -1.25328234
    8 H                    1.0000    -1.16814550    -2.99751250     0.17553500
    9 H                    1.0000     0.56079201    -3.50819048     0.23539139
   10 H                    1.0000     0.41150936    -1.39751616     1.31599958
   11 H                    1.0000    -0.59629100    -0.33105451    -1.24267793
   12 H                    1.0000    -1.59562538    -0.43047988     0.23382688
   13 H                    1.0000     0.07004064     1.01099963     1.43352156
   14 H                    1.0000     1.37707383     1.41461523    -1.33517979
   15 H                    1.0000     1.80945839     2.27535259     0.17729427
   16 H                    1.0000     2.08922979     0.50104523     0.02698250
   17 H                    1.0000    -1.99390787     1.97036611     0.40065013
   18 H                    1.0000    -0.64245850     3.14606724     0.34793851
   19 H                    1.0000    -1.11044948     2.25451259    -1.13274767

         Total DFT energy =     -252.556084370567
 Zero-Point correction to Energy  =  108.304 kcal/mol  (  0.172593 au)
 Thermal correction to Energy     =  113.691 kcal/mol  (  0.181179 au)
 Thermal correction to Enthalpy   =  114.284 kcal/mol  (  0.182123 au)
 Total Entropy                    =   89.089 cal/mol-K
   - Translational                =   39.289 cal/mol-K (mol. weight =  87.1048)
   - Rotational                   =   27.233 cal/mol-K (symmetry #  =        1)
   - Vibrational                  =   22.566 cal/mol-K
   - Translational                  =    2.979 cal/mol-K
   - Rotational                     =    2.979 cal/mol-K
   - Vibrational                    =   23.944 cal/mol-K
 P.Frequency        0.00        0.00        0.00        0.00        0.00        0.00
 P.Frequency       57.98       90.53      160.69      176.06      216.74      236.48
 P.Frequency      313.90      368.50      432.80      462.14      772.34      826.56
 P.Frequency      898.11      905.00      931.20      955.28      990.54     1070.98
 P.Frequency     1102.71     1141.31     1169.39     1177.97     1198.57     1250.07
 P.Frequency     1287.92     1320.77     1343.84     1354.55     1362.22     1400.07
 P.Frequency     1419.19     1421.28     1424.30     1435.03     1438.31     1446.99
 P.Frequency     1456.67     1477.61     2839.73     2858.68     2950.17     2976.01
 P.Frequency     2978.63     2983.53     3005.54     3059.57     3063.10     3063.65
 P.Frequency     3074.10     3093.94     3354.64

 Normal Eigenvalue ||           Projected Infra Red Intensities
  Mode   [cm**-1]  || [atomic units] [(debye/angs)**2] [(KM/mol)] [arbitrary]
 ------ ---------- || -------------- ----------------- ---------- -----------
    1        0.000 ||    0.000011           0.000         0.011       0.008
    2        0.000 ||    0.000032           0.001         0.031       0.022
    3        0.000 ||    0.000122           0.003         0.119       0.082
    4        0.000 ||    0.000048           0.001         0.046       0.032
    5        0.000 ||    0.000334           0.008         0.326       0.226
    6        0.000 ||    0.000039           0.001         0.038       0.026
    7       57.983 ||    0.001225           0.028         1.194       0.830
    8       90.530 ||    0.000873           0.020         0.851       0.592
    9      160.693 ||    0.000365           0.008         0.356       0.247
   10      176.058 ||    0.000085           0.002         0.083       0.057
   11      216.741 ||    0.000383           0.009         0.373       0.259
   12      236.479 ||    0.001723           0.040         1.680       1.167
   13      313.899 ||    0.000933           0.022         0.910       0.632
   14      368.499 ||    0.002464           0.057         2.402       1.669
   15      432.796 ||    0.001631           0.038         1.590       1.105
   16      462.139 ||    0.000089           0.002         0.087       0.060
   17      772.338 ||    0.095137           2.195        92.745      64.460
   18      826.561 ||    0.001639           0.038         1.598       1.110
   19      898.114 ||    0.001123           0.026         1.095       0.761
   20      905.000 ||    0.002841           0.066         2.770       1.925
   21      931.201 ||    0.001038           0.024         1.012       0.704
   22      955.278 ||    0.004107           0.095         4.004       2.783
   23      990.542 ||    0.008325           0.192         8.115       5.640
   24     1070.981 ||    0.013057           0.301        12.729       8.847
   25     1102.706 ||    0.002404           0.055         2.344       1.629
   26     1141.312 ||    0.012203           0.282        11.896       8.268
   27     1169.386 ||    0.000820           0.019         0.799       0.555
   28     1177.967 ||    0.039037           0.901        38.055      26.450
   29     1198.566 ||    0.006529           0.151         6.365       4.424
   30     1250.068 ||    0.001766           0.041         1.722       1.197
   31     1287.922 ||    0.007655           0.177         7.462       5.187
   32     1320.771 ||    0.001290           0.030         1.258       0.874
   33     1343.839 ||    0.011849           0.273        11.551       8.028
   34     1354.546 ||    0.001489           0.034         1.451       1.009
   35     1362.225 ||    0.013606           0.314        13.264       9.219
   36     1400.072 ||    0.001352           0.031         1.318       0.916
   37     1419.189 ||    0.004960           0.114         4.835       3.361
   38     1421.277 ||    0.012759           0.294        12.438       8.645
   39     1424.297 ||    0.008282           0.191         8.073       5.611
   40     1435.026 ||    0.005444           0.126         5.307       3.689
   41     1438.314 ||    0.002945           0.068         2.871       1.996
   42     1446.994 ||    0.007234           0.167         7.052       4.901
   43     1456.670 ||    0.004863           0.112         4.741       3.295
   44     1477.607 ||    0.026307           0.607        25.645      17.824
   45     2839.726 ||    0.084498           1.949        82.373      57.251
   46     2858.682 ||    0.168912           3.897       164.663     114.446
   47     2950.169 ||    0.016829           0.388        16.406      11.403
   48     2976.006 ||    0.026819           0.619        26.144      18.171
   49     2978.635 ||    0.013124           0.303        12.794       8.892
   50     2983.529 ||    0.060973           1.407        59.439      41.312
   51     3005.536 ||    0.036386           0.839        35.471      24.653
   52     3059.571 ||    0.009530           0.220         9.290       6.457
   53     3063.096 ||    0.040522           0.935        39.503      27.456
   54     3063.652 ||    0.032575           0.752        31.756      22.071
   55     3074.105 ||    0.027807           0.642        27.108      18.841
   56     3093.944 ||    0.012075           0.279        11.771       8.181
   57     3354.640 ||    0.000798           0.018         0.778       0.541
 ----------------------------------------------------------------------------

         Total DFT energy =     -252.560287863504

                       DFT Final Molecular Orbital Analysis
                       ------------------------------------

 Vector    1  Occ=2.000000D+00  E=-1.399253D+01

 Vector   37  Occ=0.000000D+00  E= 1.418126D-01

 Vector   38  Occ=0.000000D+00  E= 1.597165D-01

 Vector   39  Occ=0.000000D+00  E= 1.831333D-01

 Vector   40  Occ=0.000000D+00  E= 1.921507D-01

 Vector   41  Occ=0.000000D+00  E= 2.052907D-01

 Vector   42  Occ=0.000000D+00  E= 2.118828D-01

 Vector   43  Occ=0.000000D+00  E= 2.386545D-01

 Vector   44  Occ=0.000000D+00  E= 3.746144D-01

 Vector   45  Occ=0.000000D+00  E= 3.831012D-01

 Vector   46  Occ=0.000000D+00  E= 3.978658D-01

 Vector   47  Occ=0.000000D+00  E= 4.073802D-01

 Vector   48  Occ=0.000000D+00  E= 4.142941D-01

 Vector   49  Occ=0.000000D+00  E= 4.421850D-01

 Vector   50  Occ=0.000000D+00  E= 4.807587D-01

 Vector   51  Occ=0.000000D+00  E= 4.913320D-01

 Vector   52  Occ=0.000000D+00  E= 5.450141D-01

 Vector   53  Occ=0.000000D+00  E= 5.554557D-01

 Vector   54  Occ=0.000000D+00  E= 5.708067D-01

 Vector   55  Occ=0.000000D+00  E= 5.941989D-01

 Vector   56  Occ=0.000000D+00  E= 6.020393D-01

 Vector   57  Occ=0.000000D+00  E= 6.092668D-01

 Vector   58  Occ=0.000000D+00  E= 6.215646D-01

 Vector   59  Occ=0.000000D+00  E= 6.286925D-01

 Vector   60  Occ=0.000000D+00  E= 6.370737D-01

 Vector   61  Occ=0.000000D+00  E= 6.460615D-01

 Vector   62  Occ=0.000000D+00  E= 6.480238D-01

 Vector   63  Occ=0.000000D+00  E= 6.538299D-01

 Vector   64  Occ=0.000000D+00  E= 6.654343D-01

 Vector   65  Occ=0.000000D+00  E= 6.668557D-01

 Vector   66  Occ=0.000000D+00  E= 6.712224D-01

 Vector   67  Occ=0.000000D+00  E= 6.845209D-01

 Vector   68  Occ=0.000000D+00  E= 6.955442D-01

 Vector   69  Occ=0.000000D+00  E= 6.982867D-01

 Vector   70  Occ=0.000000D+00  E= 7.049089D-01

 Vector   71  Occ=0.000000D+00  E= 7.281450D-01

 Vector   72  Occ=0.000000D+00  E= 7.662100D-01

 Vector   73  Occ=0.000000D+00  E= 8.464316D-01

 Vector   74  Occ=0.000000D+00  E= 9.270927D-01

 Vector   75  Occ=0.000000D+00  E= 9.614801D-01

 Vector   76  Occ=0.000000D+00  E= 9.887946D-01

 Vector   77  Occ=0.000000D+00  E= 1.028582D+00

 Vector   78  Occ=0.000000D+00  E= 1.092461D+00

 Vector   79  Occ=0.000000D+00  E= 1.161834D+00

 Vector   80  Occ=0.000000D+00  E= 1.189600D+00

 Vector   81  Occ=0.000000D+00  E= 1.362812D+00

 Vector   82  Occ=0.000000D+00  E= 1.387426D+00

 Vector   83  Occ=0.000000D+00  E= 1.574515D+00

 Vector   84  Occ=0.000000D+00  E= 1.621785D+00

 Vector   85  Occ=0.000000D+00  E= 1.683958D+00

 Vector   86  Occ=0.000000D+00  E= 1.733668D+00

 Vector   87  Occ=0.000000D+00  E= 1.745748D+00

 Vector   88  Occ=0.000000D+00  E= 1.844249D+00

 Vector   89  Occ=0.000000D+00  E= 1.854323D+00

 Vector   90  Occ=0.000000D+00  E= 1.866239D+00

 Vector   91  Occ=0.000000D+00  E= 1.906606D+00

 Vector   92  Occ=0.000000D+00  E= 1.933825D+00

 Vector   93  Occ=0.000000D+00  E= 1.952172D+00

 Vector   94  Occ=0.000000D+00  E= 1.977677D+00

 Vector   95  Occ=0.000000D+00  E= 1.992663D+00

 Vector   96  Occ=0.000000D+00  E= 2.012921D+00

 Vector   97  Occ=0.000000D+00  E= 2.048085D+00

 Vector   98  Occ=0.000000D+00  E= 2.049669D+00

 Vector   99  Occ=0.000000D+00  E= 2.071595D+00

 Vector  100  Occ=0.000000D+00  E= 2.073047D+00

 Vector  101  Occ=0.000000D+00  E= 2.281874D+00

 Vector  102  Occ=0.000000D+00  E= 2.341847D+00

 Vector  103  Occ=0.000000D+00  E= 2.352229D+00

 Vector  104  Occ=0.000000D+00  E= 2.464283D+00

 Vector  105  Occ=0.000000D+00  E= 2.481670D+00

 Vector  106  Occ=0.000000D+00  E= 2.504409D+00

 Vector  107  Occ=0.000000D+00  E= 2.589013D+00

 Vector  108  Occ=0.000000D+00  E= 2.669305D+00

 Vector  109  Occ=0.000000D+00  E= 2.832619D+00

 Vector  110  Occ=0.000000D+00  E= 2.985777D+00

 Vector  111  Occ=0.000000D+00  E= 4.822334D+00

 Vector  112  Occ=0.000000D+00  E= 4.929640D+00

 Vector  113  Occ=0.000000D+00  E= 4.951879D+00

 Vector  114  Occ=0.000000D+00  E= 4.986512D+00

 Vector  115  Occ=0.000000D+00  E= 5.197087D+00

 Vector  116  Occ=0.000000D+00  E= 5.589682D+00

     Multipole analysis of the density
     ---------------------------------

     L   x y z        total         alpha         beta         nuclear
     -   - - -        -----         -----         ----         -------
     0   0 0 0     -0.000000    -25.000000    -25.000000     50.000000

     1   1 0 0     -0.342392      0.014877      0.014877     -0.372145
     1   0 1 0     -0.106813     -0.261445     -0.261445      0.416077
     1   0 0 1      0.364477      0.064115      0.064115      0.236247

     2   2 0 0    -32.225778    -87.838151    -87.838151    143.450524
     2   1 1 0      0.435606      1.961339      1.961339     -3.487072
     2   1 0 1      0.477465      1.487541      1.487541     -2.497618
     2   0 2 0    -29.451597   -306.025650   -306.025650    582.599703
     2   0 1 1     -0.682318      0.627043      0.627043     -1.936405

 Total times  cpu:      409.8s     wall:      409.8s
