         Total DFT energy =     -326.486419465625
@ Step       Energy      Delta E   Gmax     Grms     Xrms     Xmax   Walltime
@ ---- ---------------- -------- -------- -------- -------- -------- --------
@    0    -326.48641947  0.0D+00  0.01543  0.00395  0.00000  0.00000      6.4
         Total DFT energy =     -326.488793638743
         Total DFT energy =   -326.488793638743
@    1    -326.48879364 -2.4D-03  0.00342  0.00059  0.03081  0.09129     11.2
         Total DFT energy =     -326.488975667624
         Total DFT energy =     -326.489009234383
@    2    -326.48900923 -2.2D-04  0.00475  0.00070  0.02083  0.06196     18.6
         Total DFT energy =     -326.489096132086
         Total DFT energy =     -326.489105518905
@    3    -326.48910552 -9.6D-05  0.00270  0.00037  0.01530  0.03985     25.2
         Total DFT energy =     -326.489136575402
         Total DFT energy =     -326.489137213551
@    4    -326.48913721 -3.2D-05  0.00091  0.00017  0.00794  0.02182     31.5
         Total DFT energy =     -326.489148157414
         Total DFT energy =     -326.489151739794
@    5    -326.48915174 -1.5D-05  0.00184  0.00031  0.00832  0.03036     38.3
         Total DFT energy =     -326.489168304889
         Total DFT energy =     -326.489176848918
@    6    -326.48917685 -2.5D-05  0.00175  0.00025  0.00839  0.03130     45.2
         Total DFT energy =     -326.489198292262
         Total DFT energy =     -326.489224431008
@    7    -326.48922443 -4.8D-05  0.00166  0.00023  0.02475  0.08299     52.4
         Total DFT energy =     -326.489233693265
         Total DFT energy =     -326.489234719738
@    8    -326.48923472 -1.0D-05  0.00058  0.00008  0.00402  0.01103     58.9
         Total DFT energy =     -326.489237732343
         Total DFT energy =   -326.489237732343
@    9    -326.48923773 -3.0D-06  0.00030  0.00005  0.00141  0.00487     62.9
         Total DFT energy =     -326.489242828434
         Total DFT energy =     -326.489243057181
@   10    -326.48924306 -5.3D-06  0.00028  0.00005  0.00510  0.01792     68.6
         Total DFT energy =     -326.489244653843
         Total DFT energy =   -326.489244653843
@   11    -326.48924465 -1.6D-06  0.00018  0.00004  0.00113  0.00383     73.1
         Total DFT energy =     -326.489248870563
         Total DFT energy =   -326.489248870563
@   12    -326.48924887 -4.2D-06  0.00035  0.00007  0.00567  0.02006     77.3
         Total DFT energy =     -326.489251347319
         Total DFT energy =   -326.489251347319
@   13    -326.48925135 -2.5D-06  0.00018  0.00004  0.00253  0.00890     81.5
         Total DFT energy =     -326.489254466703
         Total DFT energy =   -326.489254466703
@   14    -326.48925447 -3.1D-06  0.00028  0.00005  0.00523  0.01726     86.0
         Total DFT energy =     -326.489255132630
         Total DFT energy =   -326.489255132630
@   15    -326.48925513 -6.7D-07  0.00013  0.00003  0.00135  0.00395     89.9
         Total DFT energy =     -326.489255419000
         Total DFT energy =   -326.489255419000
@   16    -326.48925542 -2.9D-07  0.00008  0.00001  0.00061  0.00164     93.8
@   16    -326.48925542 -2.9D-07  0.00008  0.00001  0.00061  0.00164     93.8

 Output coordinates in angstroms (scale by  1.889725989 to convert to a.u.)

  No.       Tag          Charge          X              Y              Z
 ---- ---------------- ---------- -------------- -------------- --------------
    1 C                    6.0000    -1.23433617    -1.65603441     0.58432654
    2 C                    6.0000     0.16169254    -1.09783800     0.25984334
    3 C                    6.0000     1.16403980    -2.21227611    -0.08810494
    4 C                    6.0000     0.11983300    -0.04657589    -0.87895493
    5 N                    7.0000    -0.71344860     1.11684077    -0.58433280
    6 C                    6.0000    -0.25935154     2.15943769     0.17299392
    7 O                    8.0000     0.87336910     2.25104685     0.63288287
    8 H                    1.0000    -1.64469391    -2.24305698    -0.26626715
    9 H                    1.0000    -1.95105559    -0.84265159     0.81967118
   10 H                    1.0000    -1.20038448    -2.32665798     1.46656635
   11 H                    1.0000     0.54056561    -0.56045511     1.15421196
   12 H                    1.0000     0.84579177    -2.77428874    -0.99239728
   13 H                    1.0000     2.17192412    -1.79304095    -0.28460305
   14 H                    1.0000     1.25979849    -2.93941196     0.74347991
   15 H                    1.0000     1.14887226     0.32103624    -1.06333509
   16 H                    1.0000    -0.25007218    -0.50801943    -1.81915066
   17 H                    1.0000    -1.69349168     1.11453917    -0.87013067
   18 H                    1.0000    -1.05147392     2.95005295     0.32102214

         Total DFT energy =     -326.490314822198
 Zero-Point correction to Energy  =   97.299 kcal/mol  (  0.155056 au)
 Thermal correction to Energy     =  102.824 kcal/mol  (  0.163860 au)
 Thermal correction to Enthalpy   =  103.416 kcal/mol  (  0.164804 au)
 Total Entropy                    =   91.319 cal/mol-K
   - Translational                =   39.732 cal/mol-K (mol. weight = 101.0841)
   - Rotational                   =   27.964 cal/mol-K (symmetry #  =        1)
   - Vibrational                  =   23.622 cal/mol-K
   - Translational                  =    2.979 cal/mol-K
   - Rotational                     =    2.979 cal/mol-K
   - Vibrational                    =   25.023 cal/mol-K
 P.Frequency       -0.00       -0.00       -0.00       -0.00        0.00        0.00
 P.Frequency       45.18       76.93      181.42      196.76      210.40      271.69
 P.Frequency      299.03      346.32      402.38      476.95      524.26      736.20
 P.Frequency      808.11      880.63      904.25      932.98      946.30      968.93
 P.Frequency      988.55     1122.33     1134.96     1161.95     1197.65     1250.54
 P.Frequency     1295.25     1326.92     1340.86     1352.72     1364.47     1371.35
 P.Frequency     1397.84     1422.88     1429.36     1439.18     1445.80     1492.20
 P.Frequency     1763.55     2846.31     2965.59     2970.50     2988.84     3005.83
 P.Frequency     3050.85     3055.40     3061.15     3066.41     3068.86     3507.27

 Normal Eigenvalue ||           Projected Infra Red Intensities
  Mode   [cm**-1]  || [atomic units] [(debye/angs)**2] [(KM/mol)] [arbitrary]
 ------ ---------- || -------------- ----------------- ---------- -----------
    1       -0.000 ||    0.000469           0.011         0.457       0.242
    2       -0.000 ||    0.002732           0.063         2.663       1.410
    3       -0.000 ||    0.000459           0.011         0.447       0.237
    4       -0.000 ||    0.000111           0.003         0.108       0.057
    5        0.000 ||    0.000719           0.017         0.701       0.371
    6        0.000 ||    0.000855           0.020         0.834       0.441
    7       45.184 ||    0.006037           0.139         5.885       3.116
    8       76.926 ||    0.003674           0.085         3.582       1.896
    9      181.416 ||    0.016765           0.387        16.343       8.653
   10      196.763 ||    0.008480           0.196         8.267       4.377
   11      210.401 ||    0.000716           0.017         0.698       0.370
   12      271.688 ||    0.013330           0.308        12.994       6.880
   13      299.032 ||    0.020549           0.474        20.032      10.606
   14      346.325 ||    0.002598           0.060         2.533       1.341
   15      402.378 ||    0.004963           0.114         4.838       2.561
   16      476.954 ||    0.028297           0.653        27.585      14.604
   17      524.259 ||    0.027198           0.627        26.514      14.037
   18      736.202 ||    0.001917           0.044         1.869       0.989
   19      808.106 ||    0.005559           0.128         5.419       2.869
   20      880.626 ||    0.010677           0.246        10.409       5.511
   21      904.250 ||    0.001270           0.029         1.239       0.656
   22      932.978 ||    0.000518           0.012         0.505       0.267
   23      946.299 ||    0.001737           0.040         1.693       0.896
   24      968.933 ||    0.000172           0.004         0.168       0.089
   25      988.547 ||    0.004509           0.104         4.396       2.327
   26     1122.325 ||    0.002516           0.058         2.452       1.298
   27     1134.956 ||    0.000828           0.019         0.807       0.427
   28     1161.953 ||    0.006906           0.159         6.733       3.565
   29     1197.653 ||    0.051902           1.197        50.597      26.787
   30     1250.541 ||    0.027876           0.643        27.175      14.387
   31     1295.247 ||    0.000277           0.006         0.270       0.143
   32     1326.923 ||    0.002415           0.056         2.355       1.247
   33     1340.858 ||    0.008638           0.199         8.421       4.458
   34     1352.725 ||    0.006050           0.140         5.898       3.122
   35     1364.471 ||    0.004035           0.093         3.934       2.083
   36     1371.352 ||    0.012000           0.277        11.698       6.193
   37     1397.844 ||    0.006299           0.145         6.140       3.251
   38     1422.876 ||    0.001098           0.025         1.071       0.567
   39     1429.355 ||    0.004638           0.107         4.521       2.394
   40     1439.179 ||    0.009325           0.215         9.091       4.813
   41     1445.803 ||    0.013747           0.317        13.401       7.095
   42     1492.196 ||    0.111076           2.563       108.282      57.328
   43     1763.552 ||    0.254850           5.880       248.440     131.531
   44     2846.310 ||    0.158229           3.650       154.249      81.664
   45     2965.591 ||    0.027739           0.640        27.041      14.316
   46     2970.499 ||    0.019368           0.447        18.880       9.996
   47     2988.840 ||    0.023974           0.553        23.371      12.373
   48     3005.829 ||    0.011704           0.270        11.410       6.041
   49     3050.845 ||    0.016271           0.375        15.862       8.398
   50     3055.397 ||    0.016587           0.383        16.170       8.561
   51     3061.155 ||    0.025629           0.591        24.985      13.228
   52     3066.407 ||    0.020774           0.479        20.252      10.722
   53     3068.864 ||    0.023439           0.541        22.850      12.097
   54     3507.266 ||    0.013782           0.318        13.435       7.113
 ----------------------------------------------------------------------------

         Total DFT energy =     -326.502709524207

                       DFT Final Molecular Orbital Analysis
                       ------------------------------------

 Vector    1  Occ=2.000000D+00  E=-1.874863D+01

 Vector   48  Occ=0.000000D+00  E= 3.697571D-01

 Vector   49  Occ=0.000000D+00  E= 3.978226D-01

 Vector   50  Occ=0.000000D+00  E= 4.139076D-01

 Vector   51  Occ=0.000000D+00  E= 4.218922D-01

 Vector   52  Occ=0.000000D+00  E= 4.335638D-01

 Vector   53  Occ=0.000000D+00  E= 4.649303D-01

 Vector   54  Occ=0.000000D+00  E= 5.225163D-01

 Vector   55  Occ=0.000000D+00  E= 5.423846D-01

 Vector   56  Occ=0.000000D+00  E= 5.469143D-01

 Vector   57  Occ=0.000000D+00  E= 5.659890D-01

 Vector   58  Occ=0.000000D+00  E= 5.746532D-01

 Vector   59  Occ=0.000000D+00  E= 5.907062D-01

 Vector   60  Occ=0.000000D+00  E= 5.995227D-01

 Vector   61  Occ=0.000000D+00  E= 6.118039D-01

 Vector   62  Occ=0.000000D+00  E= 6.186089D-01

 Vector   63  Occ=0.000000D+00  E= 6.339686D-01

 Vector   64  Occ=0.000000D+00  E= 6.423334D-01

 Vector   65  Occ=0.000000D+00  E= 6.481062D-01

 Vector   66  Occ=0.000000D+00  E= 6.539088D-01

 Vector   67  Occ=0.000000D+00  E= 6.596016D-01

 Vector   68  Occ=0.000000D+00  E= 6.800071D-01

 Vector   69  Occ=0.000000D+00  E= 6.845511D-01

 Vector   70  Occ=0.000000D+00  E= 6.956289D-01

 Vector   71  Occ=0.000000D+00  E= 6.967231D-01

 Vector   72  Occ=0.000000D+00  E= 7.156925D-01

 Vector   73  Occ=0.000000D+00  E= 7.560594D-01

 Vector   74  Occ=0.000000D+00  E= 8.186831D-01

 Vector   75  Occ=0.000000D+00  E= 8.417845D-01

 Vector   76  Occ=0.000000D+00  E= 8.622770D-01

 Vector   77  Occ=0.000000D+00  E= 9.702227D-01

 Vector   78  Occ=0.000000D+00  E= 9.841225D-01

 Vector   79  Occ=0.000000D+00  E= 9.938040D-01

 Vector   80  Occ=0.000000D+00  E= 1.022035D+00

 Vector   81  Occ=0.000000D+00  E= 1.041857D+00

 Vector   82  Occ=0.000000D+00  E= 1.107843D+00

 Vector   83  Occ=0.000000D+00  E= 1.152686D+00

 Vector   84  Occ=0.000000D+00  E= 1.213959D+00

 Vector   85  Occ=0.000000D+00  E= 1.326503D+00

 Vector   86  Occ=0.000000D+00  E= 1.344659D+00

 Vector   87  Occ=0.000000D+00  E= 1.441999D+00

 Vector   88  Occ=0.000000D+00  E= 1.528647D+00

 Vector   89  Occ=0.000000D+00  E= 1.562129D+00

 Vector   90  Occ=0.000000D+00  E= 1.638393D+00

 Vector   91  Occ=0.000000D+00  E= 1.684537D+00

 Vector   92  Occ=0.000000D+00  E= 1.701107D+00

 Vector   93  Occ=0.000000D+00  E= 1.808104D+00

 Vector   94  Occ=0.000000D+00  E= 1.831284D+00

 Vector   95  Occ=0.000000D+00  E= 1.851564D+00

 Vector   96  Occ=0.000000D+00  E= 1.869856D+00

 Vector   97  Occ=0.000000D+00  E= 1.873124D+00

 Vector   98  Occ=0.000000D+00  E= 1.908708D+00

 Vector   99  Occ=0.000000D+00  E= 1.949701D+00

 Vector  100  Occ=0.000000D+00  E= 1.959811D+00

 Vector  101  Occ=0.000000D+00  E= 1.991752D+00

 Vector  102  Occ=0.000000D+00  E= 2.056233D+00

 Vector  103  Occ=0.000000D+00  E= 2.065474D+00

 Vector  104  Occ=0.000000D+00  E= 2.076294D+00

 Vector  105  Occ=0.000000D+00  E= 2.183509D+00

 Vector  106  Occ=0.000000D+00  E= 2.256564D+00

 Vector  107  Occ=0.000000D+00  E= 2.314490D+00

 Vector  108  Occ=0.000000D+00  E= 2.338513D+00

 Vector  109  Occ=0.000000D+00  E= 2.395016D+00

 Vector  110  Occ=0.000000D+00  E= 2.433350D+00

 Vector  111  Occ=0.000000D+00  E= 2.520142D+00

 Vector  112  Occ=0.000000D+00  E= 2.586540D+00

 Vector  113  Occ=0.000000D+00  E= 2.618289D+00

 Vector  114  Occ=0.000000D+00  E= 2.644906D+00

 Vector  115  Occ=0.000000D+00  E= 2.677360D+00

 Vector  116  Occ=0.000000D+00  E= 2.758893D+00

 Vector  117  Occ=0.000000D+00  E= 2.934668D+00

 Vector  118  Occ=0.000000D+00  E= 3.050738D+00

 Vector  119  Occ=0.000000D+00  E= 3.245304D+00

 Vector  120  Occ=0.000000D+00  E= 3.486482D+00

 Vector  121  Occ=0.000000D+00  E= 4.811540D+00

 Vector  122  Occ=0.000000D+00  E= 4.948484D+00

 Vector  123  Occ=0.000000D+00  E= 4.975163D+00

 Vector  124  Occ=0.000000D+00  E= 4.984655D+00

 Vector  125  Occ=0.000000D+00  E= 5.193528D+00

 Vector  126  Occ=0.000000D+00  E= 5.584222D+00

 Vector  127  Occ=0.000000D+00  E= 6.036300D+00

     Multipole analysis of the density
     ---------------------------------

     L   x y z        total         alpha         beta         nuclear
     -   - - -        -----         -----         ----         -------
     0   0 0 0     -0.000000    -28.000000    -28.000000     56.000000

     1   1 0 0     -1.485578     -0.629272     -0.629272     -0.227034
     1   0 1 0     -0.805203      0.443442      0.443442     -1.692088
     1   0 0 1     -0.865884     -0.888767     -0.888767      0.911650

     2   2 0 0    -31.991000   -102.064826   -102.064826    172.138652
     2   1 1 0     -5.658145      4.508192      4.508192    -14.674528
     2   1 0 1      0.043032      1.273480      1.273480     -2.503927
     2   0 2 0    -36.164599   -324.549329   -324.549329    612.934059
     2   0 1 1     -2.288588     -1.954023     -1.954023      1.619458

 Total times  cpu:      431.9s     wall:      431.9s
